#     DFTpy    
  CRYSTAL 
    
  PRIMVEC    
  -1.755    1.755    1.755    
  1.755    -1.755    1.755    
  1.755    1.755    -1.755    
  PRIMCOORD    
  1    1    
  Li    0.0    0.0    0.0    
  BEGIN_BLOCK_DATAGRID_3D    
  3d_datagrid_density    
  BEGIN_DATAGRID_3D#0    
  37    37    37    
  0.0    0.0    0.0    
  -1.75499999887519    1.75499999887519    1.75499999887519    
  1.75499999887519    -1.75499999887519    1.75499999887519    
  1.75499999887519    1.75499999887519    -1.75499999887519    
  0.05372003077659114    0.05447426413972435    0.056339617857958796    0.058358764917019745    0.059577836636408345    
  0.05954554700120804    0.05839968983921707    0.056603932382055314    0.054654986413334355    0.05292637762229845    
  0.051603548331825407    0.050663314891062364    0.04992945513708754    0.04921253702098227    0.04844454740948506    
  0.04770014192058648    0.047105296244504824    0.04673985413740183    0.04661948154844374    0.046739854137401844    
  0.047105296244504824    0.04770014192058647    0.04844454740948506    0.049212537020982265    0.04992945513708754    
  0.05066331489106234    0.05160354833182541    0.05292637762229845    0.054654986413334355    0.05660393238205531    
  0.05839968983921707    0.05954554700120804    0.059577836636408366    0.05835876491701977    0.056339617857958775    
  0.05447426413972438    0.05372003077659114    0.05447426413972438    0.05470994074368761    0.05615884634863266    
  0.058045785033824925    0.05941449149201936    0.05966459682509901    0.058770710376291106    0.05711128150206031    
  0.05517429271999117    0.05336579325290828    0.051925044789377525    0.050887967598944456    0.050114113095304204    
  0.04940407981158898    0.048646334453788916    0.04787815023609697    0.04722142399523747    0.04677618807460965    
  0.046575216069693386    0.046615237187622734    0.046898102979499465    0.04742089496839208    0.048128989068084334    
  0.048905590474594716    0.0496446826313297    0.050356873821760885    0.05119604816591496    0.05235917424606593    
  0.05393672360906619    0.05582387956879293    0.05771984882422574    0.05917817929273859    0.05971907420899434    
  0.05906529533655324    0.05743057471652343    0.055579873708356965    0.05447426413972438    0.056339617857958824    
  0.056158846348632614    0.056995447601015437    0.058353081203434076    0.0594454151921234    0.059667150085430304    
  0.05887501971579307    0.05732737799994286    0.055447074568281275    0.05362655049180521    0.05212540694303117    
  0.05101902936127281    0.0502033931078289    0.049487494399416146    0.04873541938934621    0.04795122293862105    
  0.04724359904539446    0.04672435929994078    0.046444049887930904    0.04640497918285482    0.04660541204682525    
  0.04704869597167434    0.04770490923550251    0.0484794460116105    0.0492510944504515    0.04997137545438126    
  0.05073303711161536    0.05172395696609757    0.05309173355627295    0.0548255738458607    0.056723817579306    
  0.05843028074938914    0.05951568992084802    0.059639172946129464    0.0587890307634919    0.05743057471652343    
  0.056339617857958824    0.058358764917019745    0.058045785033824904    0.0583530812034341    0.05905422248509442    
  0.05962343688615929    0.05957646880829059    0.058735312513019805    0.05725071000610662    0.05545066719311746    
  0.05367686673095499    0.05217748082019042    0.051043916843675305    0.05019974503027603    0.0494717179490156    
  0.04871799319576427    0.04792065938474421    0.04717225659274476    0.046587399787245826    0.04623105885887595    
  0.04611479033851003    0.046235081362963205    0.046595546567967494    0.04718470843991632    0.047937558510951384    
  0.04873920991501941    0.04949661900673713    0.05022714917664823    0.05107232610681827    0.05220549362168568    
  0.0537035595898012    0.05547571976009566    0.05727415023576596    0.058757008034881236    0.05959574774588386    
  0.059639172946129464    0.05906529533655324    0.058358764917019745    0.059577836636408345    0.05941449149201936    
  0.0594454151921234    0.05962343688615929    0.05967307978417635    0.059288250020221964    0.05832925652044611    
  0.05688176351616827    0.05518300752862163    0.0535072475566915    0.05206909959933132    0.05095548110575352    
  0.050105399072815665    0.04936573797299396    0.04860314445638696    0.04779184036401979    0.047011046087933404    
  0.04637108347006384    0.04594488145187351    0.04575427923651691    0.045797855146102504    0.046076619376572786    
  0.046588139710810716    0.0472953495439235    0.0481079734874347    0.048915846271162106    0.04966780387603916    
  0.05042958732756744    0.05135395388815794    0.0525747183620308    0.054106508500335035    0.05581510019564439    
  0.05745682408154029    0.058757008034881236    0.05951568992084802    0.05971907420899434    0.059577836636408345    
  0.05954554700120804    0.05966459682509901    0.059667150085430304    0.05957646880829059    0.059288250020221964    
  0.05865769073380294    0.05761600722013724    0.056226925383539156    0.054661842963435646    0.05313077785501128    
  0.05180535288815414    0.05075468174262428    0.04992307256431904    0.04917666751012124    0.04840008629289385    
  0.04757256062161015    0.04676625016724135    0.04608333813288905    0.04559709160735777    0.04533718155867255    
  0.04530807227948192    0.04550953322133321    0.045940134373012344    0.0465811211023453    0.04737388675668621    
  0.04822036216314065    0.049029118265279274    0.049784761810139175    0.05057601607840718    0.05154226151439858    
  0.05277453972016463    0.05424654071694276    0.05581510019564441    0.05727415023576596    0.05843028074938914    
  0.05917817929273859    0.05954554700120804    0.05839968983921707    0.058770710376291106    0.05887501971579307    
  0.058735312513019805    0.05832925652044611    0.05761600722013723    0.05659010365649316    0.055317158218120506    
  0.053928623661034    0.05258278993720155    0.05140841152926185    0.05045145257361957    0.04965664995513251    
  0.04890895628485755    0.04811636069491229    0.04727178731475122    0.04644652795528838    0.04573381060114811    
  0.04520084093061691    0.044880027099875076    0.04478315489019501    0.044912928976439476    0.04526597967185672    
  0.045829920361465465    0.04657163001478461    0.047422854446535864    0.04828907479409963    0.049097857373338175    
  0.04985559289889449    0.050654082250167924    0.05160852104378779    0.05277453972016463    0.054106508500335056    
  0.05547571976009566    0.05672381757930599    0.05771984882422574    0.05839968983921707    0.056603932382055314    
  0.05711128150206031    0.05732737799994286    0.05725071000610662    0.05688176351616829    0.056226925383539156    
  0.055317158218120506    0.05422284736153707    0.05305028840589145    0.05191731420150532    0.050913930061858355    
  0.05006356098272681    0.049312147274661364    0.04856546410418168    0.04775776953095985    0.04689906147394991    
  0.04606275821614218    0.045333665834459885    0.044769410157951633    0.044399744085894775    0.044241959856004515    
  0.044305428924677294    0.04458733023395238    0.045074119890535454    0.04574460505933559    0.046560099125511    
  0.0474504389828038    0.04832702317411323    0.04913141307822688    0.04987971070834314    0.05065408225016793    
  0.0515422615143986    0.05257471836203078    0.05370355958980121    0.054825573845860676    0.05582387956879293    
  0.056603932382055314    0.054654986413334355    0.055174292719991185    0.055447074568281296    0.05545066719311745    
  0.05518300752862163    0.054661842963435646    0.053928623661034    0.05305028840589147    0.0521117075437732    
  0.05119676270778475    0.05036164079960026    0.049611188435350555    0.04889682783153935    0.048148924633986886    
  0.04732936221395586    0.046464073086878804    0.04562723371579388    0.04489513603565462    0.044315310795060146    
  0.043911680021591556    0.04370318606716094    0.04370625100976564    0.0439230484213588    0.044338789632956024    
  0.0449329983377854    0.04568342744035498    0.04655033761242548    0.04746311063189665    0.048339455452992106    
  0.049131413078226896    0.04985559289889449    0.05057601607840718    0.051353953888157944    0.05220549362168569    
  0.05309173355627295    0.053936723609066206    0.054654986413334355    0.052926377622298446    0.053365793252908286    
  0.05362655049180521    0.053676866730954974    0.0535072475566915    0.05313077785501129    0.05258278993720155    
  0.05191731420150532    0.05119676270778475    0.05047539992987052    0.049781727287124836    0.04910788839156084    
  0.04841552022206041    0.04766217713081969    0.04683657584783607    0.045976555035291244    0.045152589882480255    
  0.044430940293131715    0.04385036064404914    0.043429116585632845    0.04318439663866459    0.04313627047012446    
  0.043293671660349635    0.043645111541275816    0.044168248748786006    0.04484363321083506    0.04565031076383985    
  0.04654651234381338    0.04746311063189665    0.04832702317411322    0.04909785737333817    0.049784761810139175    
  0.05042958732756744    0.05107232610681828    0.051723956966097565    0.05235917424606594    0.052926377622298446    
  0.0516035483318254    0.051925044789377525    0.052125406943031194    0.05217748082019044    0.052069099599331335    
  0.05180535288815415    0.05140841152926188    0.05091393006185836    0.05036164079960026    0.049781727287124836    
  0.04918354538590875    0.04855383007266077    0.047867516363099015    0.04710797664625667    0.04628644280664847    
  0.04544708500197165    0.044651679435440524    0.04395434929562696    0.04338678831278703    0.04296427712642619    
  0.042701292765828715    0.04261671388247494    0.04272327338281144    0.04301605677867708    0.0434753372268553    
  0.044079824286394    0.04481247801507074    0.04565031076383985    0.046550337612425476    0.0474504389828038    
  0.04828907479409963    0.04902911826527926    0.04966780387603916    0.050227149176648216    0.05073303711161535    
  0.05119604816591496    0.0516035483318254    0.050663314891062364    0.050887967598944456    0.05101902936127283    
  0.0510439168436753    0.05095548110575351    0.050754681742624264    0.05045145257361957    0.050063560982726824    
  0.04961118843535054    0.04910788839156085    0.048553830072660745    0.04793786692410992    0.04724904480362187    
  0.046490878952000964    0.04568922477366744    0.04488848160584173    0.04413836356475973    0.04347973005741023    
  0.042938461363396796    0.04252985966513655    0.042267228773782306    0.04216524864099807    0.042234964920639974    
  0.04247639900490449    0.04287707705768462    0.04341792185818212    0.04407982428639402    0.04484363321083507    
  0.04568342744035497    0.046560099125511    0.04742285444653586    0.04822036216314066    0.048915846271162106    
  0.049496619006737144    0.04997137545438126    0.050356873821760906    0.050663314891062364    0.049929455137087526    
  0.050114113095304204    0.050203393107828904    0.050199745030276015    0.05010539907281567    0.049923072564319056    
  0.04965664995513252    0.04931214727466137    0.04889682783153934    0.048415520222060415    0.047867516363099015    
  0.04724904480362186    0.04656183659444797    0.04582176853791287    0.04506020417026736    0.04431651730267632    
  0.04362764077620012    0.043022059864317674    0.04252050654270042    0.04213958459350914    0.041893547974827    
  0.04179320758033023    0.041844258355484575    0.04204673781692183    0.042394959456010683    0.04287707705768461    
  0.043475337226855315    0.04416824874878601    0.0449329983377854    0.04574460505933559    0.04657163001478461    
  0.047373886756686225    0.0481079734874347    0.04873920991501943    0.0492510944504515    0.04964468263132969    
  0.049929455137087526    0.049212537020982265    0.049404079811588994    0.049487494399416146    0.0494717179490156    
  0.04936573797299398    0.04917666751012124    0.04890895628485755    0.04856546410418168    0.048148924633986886    
  0.047662177130819695    0.04710797664625667    0.04649087895200097    0.04582176853791288    0.045121662084417764    
  0.04442030102551647    0.04374918435303851    0.043134347781729344    0.04259481222210206    0.042146678262101694    
  0.041806731790642294    0.0415905354682349    0.04150725662454563    0.04155784776830553    0.041738872890767095    
  0.04204673781692183    0.04247639900490449    0.04301605677867708    0.04364511154127582    0.04433878963295603    
  0.04507411989053546    0.045829920361465465    0.0465811211023453    0.04729534954392349    0.04793755851095139    
  0.04847944601161049    0.04890559047459473    0.049212537020982265    0.04844454740948506    0.04864633445378892    
  0.048735419389346224    0.04871799319576427    0.04860314445638695    0.04840008629289384    0.0481163606949123    
  0.04775776953095986    0.04732936221395586    0.046836575847836064    0.04628644280664846    0.04568922477366744    
  0.04506020417026736    0.04442030102551647    0.04379402635878425    0.04320499081354884    0.0426718571250067    
  0.042208239008206416    0.0418265975328209    0.04154150648756823    0.041367621481581046    0.04131367127519425    
  0.0413791467521853    0.04155784776830553    0.041844258355484575    0.04223496492063998    0.04272327338281144    
  0.043293671660349635    0.0439230484213588    0.04458733023395238    0.045265979671856714    0.04594013437301235    
  0.046588139710810716    0.047184708439916324    0.04770490923550251    0.048128989068084334    0.04844454740948506    
  0.04770014192058646    0.04787815023609697    0.04795122293862105    0.04792065938474421    0.04779184036401978    
  0.04757256062161015    0.04727178731475122    0.0468990614739499    0.0464640730868788    0.045976555035291244    
  0.04544708500197164    0.044888481605841725    0.044316517302676314    0.04374918435303851    0.04320499081354883    
  0.04270116203503844    0.042252349879444866    0.04187047260654495    0.041566036533138735    0.041349764424177766    
  0.041232120641318266    0.041220022675035536    0.04131367127519426    0.04150725662454562    0.041793207580330234    
  0.04216524864099807    0.042616713882474955    0.04313627047012447    0.043706251009765634    0.0443054289246773    
  0.04491292897643948    0.04550953322133321    0.04607661937657279    0.04659554656796751    0.04704869597167434    
  0.04742089496839208    0.04770014192058646    0.04710529624450482    0.04722142399523747    0.04724359904539448    
  0.04717225659274476    0.047011046087933404    0.04676625016724135    0.046446527955288384    0.04606275821614218    
  0.04562723371579387    0.045152589882480255    0.044651679435440524    0.04413836356475974    0.04362764077620011    
  0.04313434778172934    0.04267185712500671    0.042252349879444866    0.0418879318002493    0.04159055012010351    
  0.04137039754233847    0.041234652368942235    0.04118776046810437    0.041232120641318266    0.041367621481581046    
  0.04159053546823491    0.04189354797482699    0.0422672287737823    0.04270129276582872    0.04318439663866459    
  0.043703186067160935    0.04424195985600451    0.04478315489019501    0.04530807227948192    0.045797855146102504    
  0.046235081362963205    0.04660541204682526    0.04689810297949947    0.04710529624450482    0.046739854137401844    
  0.04677618807460966    0.046724359299940794    0.046587399787245846    0.046371083470063856    0.04608333813288906    
  0.04573381060114812    0.04533366583445989    0.04489513603565462    0.044430940293131715    0.04395434929562695    
  0.04347973005741024    0.04302205986431768    0.04259481222210206    0.04220823900820643    0.041870472606544966    
  0.041590550120103514    0.041379491204512925    0.04124739531123605    0.04119935941178813    0.041234652368942235    
  0.041349764424177766    0.04154150648756823    0.041806731790642294    0.04213958459350914    0.04252985966513655    
  0.042964277126426205    0.04342911658563285    0.043911680021591556    0.04439974408589477    0.04488002709987508    
  0.04533718155867255    0.045754279236516905    0.04611479033851003    0.046404979182854814    0.04661523718762273    
  0.046739854137401844    0.04661948154844374    0.04657521606969338    0.04644404988793092    0.046231058858875955    
  0.0459448814518735    0.045597091607357754    0.04520084093061691    0.04476941015795163    0.044315310795060146    
  0.04385036064404914    0.04338678831278702    0.042938461363396796    0.04252050654270042    0.04214667826210169    
  0.0418265975328209    0.041566036533138735    0.04137039754233846    0.041247395311236036    0.041205190074901976    
  0.04124739531123604    0.04137039754233846    0.04156603653313873    0.0418265975328209    0.042146678262101694    
  0.04252050654270042    0.04293846136339679    0.04338678831278703    0.04385036064404914    0.044315310795060146    
  0.04476941015795163    0.04520084093061691    0.045597091607357754    0.0459448814518735    0.04623105885887595    
  0.04644404988793089    0.04657521606969338    0.04661948154844374    0.046739854137401844    0.046615237187622734    
  0.046404979182854834    0.04611479033851003    0.04575427923651691    0.04533718155867255    0.04488002709987508    
  0.04439974408589477    0.04391168002159156    0.04342911658563285    0.04296427712642619    0.04252985966513655    
  0.04213958459350914    0.04180673179064229    0.04154150648756823    0.041349764424177766    0.041234652368942235    
  0.04119935941178812    0.04124739531123605    0.04137949120451294    0.041590550120103514    0.04187047260654496    
  0.04220823900820643    0.04259481222210206    0.04302205986431768    0.04347973005741024    0.043954349295626964    
  0.04443094029313172    0.04489513603565463    0.04533366583445989    0.04573381060114812    0.046083338132889055    
  0.04637108347006385    0.046587399787245846    0.04672435929994078    0.04677618807460966    0.046739854137401844    
  0.04710529624450481    0.04689810297949947    0.046605412046825265    0.04623508136296321    0.045797855146102504    
  0.04530807227948192    0.04478315489019501    0.044241959856004515    0.043703186067160935    0.04318439663866459    
  0.04270129276582871    0.042267228773782306    0.04189354797482699    0.04159053546823491    0.041367621481581046    
  0.04123212064131827    0.04118776046810437    0.04123465236894223    0.04137039754233847    0.041590550120103514    
  0.041887931800249294    0.04225234987944486    0.04267185712500671    0.04313434778172934    0.04362764077620011    
  0.04413836356475974    0.04465167943544054    0.04515258988248026    0.04562723371579387    0.046062758216142176    
  0.046446527955288384    0.04676625016724135    0.047011046087933404    0.04717225659274476    0.047243599045394456    
  0.04722142399523746    0.04710529624450481    0.04770014192058646    0.04742089496839208    0.047048695971674354    
  0.04659554656796751    0.046076619376572786    0.04550953322133321    0.04491292897643948    0.0443054289246773    
  0.04370625100976564    0.04313627047012447    0.04261671388247494    0.042165248640998076    0.041793207580330234    
  0.04150725662454563    0.04131367127519426    0.04122002267503554    0.041232120641318266    0.041349764424177766    
  0.041566036533138735    0.04187047260654496    0.042252349879444866    0.04270116203503843    0.04320499081354884    
  0.04374918435303851    0.044316517302676314    0.04488848160584172    0.04544708500197165    0.045976555035291244    
  0.0464640730868788    0.0468990614739499    0.04727178731475122    0.04757256062161015    0.04779184036401978    
  0.047920659384744206    0.04795122293862104    0.04787815023609696    0.04770014192058646    0.04844454740948506    
  0.048128989068084334    0.04770490923550252    0.04718470843991631    0.04658813971081071    0.045940134373012344    
  0.04526597967185672    0.04458733023395238    0.0439230484213588    0.043293671660349635    0.042723273382811434    
  0.04223496492063998    0.041844258355484575    0.04155784776830553    0.041379146752185306    0.04131367127519426    
  0.04136762148158104    0.04154150648756822    0.041826597532820906    0.042208239008206416    0.0426718571250067    
  0.043204990813548824    0.04379402635878425    0.04442030102551647    0.04506020417026736    0.045689224773667436    
  0.04628644280664847    0.046836575847836064    0.04732936221395586    0.04775776953095985    0.0481163606949123    
  0.04840008629289384    0.04860314445638695    0.04871799319576426    0.04873541938934621    0.04864633445378891    
  0.04844454740948506    0.049212537020982265    0.04890559047459473    0.0484794460116105    0.04793755851095139    
  0.0472953495439235    0.0465811211023453    0.045829920361465465    0.04507411989053546    0.04433878963295603    
  0.04364511154127582    0.04301605677867707    0.0424763990049045    0.04204673781692183    0.041738872890767095    
  0.04155784776830553    0.04150725662454563    0.0415905354682349    0.04180673179064228    0.042146678262101694    
  0.04259481222210206    0.043134347781729344    0.043749184353038505    0.04442030102551648    0.04512166208441777    
  0.04582176853791288    0.046490878952000964    0.04710797664625668    0.047662177130819695    0.048148924633986886    
  0.04856546410418169    0.04890895628485755    0.049176667510121244    0.04936573797299399    0.0494717179490156    
  0.04948749439941614    0.049404079811588994    0.049212537020982265    0.049929455137087526    0.0496446826313297    
  0.04925109445045151    0.04873920991501943    0.0481079734874347    0.047373886756686225    0.04657163001478461    
  0.04574460505933559    0.04493299833778539    0.04416824874878601    0.0434753372268553    0.042877077057684614    
  0.042394959456010683    0.04204673781692183    0.041844258355484575    0.041793207580330234    0.041893547974827    
  0.04213958459350913    0.04252050654270042    0.04302205986431768    0.04362764077620012    0.044316517302676314    
  0.04506020417026736    0.04582176853791287    0.04656183659444797    0.047249044803621854    0.04786751636309903    
  0.048415520222060415    0.04889682783153935    0.04931214727466137    0.04965664995513251    0.049923072564319056    
  0.05010539907281567    0.05019974503027602    0.050203393107828904    0.050114113095304204    0.049929455137087526    
  0.05066331489106235    0.0503568738217609    0.04997137545438127    0.04949661900673713    0.04891584627116211    
  0.04822036216314066    0.047422854446535864    0.046560099125511    0.04568342744035498    0.04484363321083507    
  0.04407982428639401    0.04341792185818212    0.04287707705768462    0.0424763990049045    0.042234964920639974    
  0.042165248640998076    0.042267228773782306    0.042529859665136546    0.04293846136339679    0.04347973005741024    
  0.04413836356475973    0.04488848160584172    0.04568922477366744    0.046490878952000964    0.04724904480362187    
  0.047937866924109916    0.04855383007266076    0.04910788839156086    0.04961118843535054    0.050063560982726824    
  0.05045145257361957    0.05075468174262427    0.05095548110575351    0.051043916843675305    0.05101902936127281    
  0.05088796759894446    0.05066331489106235    0.05160354833182539    0.05119604816591495    0.05073303711161536    
  0.05022714917664822    0.04966780387603916    0.04902911826527925    0.04828907479409963    0.0474504389828038    
  0.046550337612425476    0.04565031076383984    0.04481247801507072    0.04407982428639401    0.0434753372268553    
  0.04301605677867708    0.04272327338281144    0.04261671388247494    0.042701292765828715    0.042964277126426184    
  0.04338678831278703    0.04395434929562696    0.044651679435440524    0.04544708500197164    0.04628644280664847    
  0.04710797664625667    0.047867516363099015    0.048553830072660766    0.049183545385908765    0.04978172728712484    
  0.05036164079960026    0.050913930061858355    0.05140841152926187    0.05180535288815414    0.05206909959933132    
  0.05217748082019042    0.052125406943031194    0.051925044789377525    0.05160354833182539    0.052926377622298446    
  0.052359174246065926    0.05172395696609757    0.051072326106818264    0.05042958732756743    0.049784761810139175    
  0.04909785737333817    0.04832702317411322    0.04746311063189664    0.04654651234381338    0.04565031076383984    
  0.04484363321083508    0.044168248748786006    0.04364511154127582    0.04329367166034963    0.043136270470124465    
  0.04318439663866459    0.04342911658563284    0.04385036064404914    0.04443094029313172    0.04515258988248026    
  0.045976555035291244    0.04683657584783607    0.04766217713081969    0.04841552022206041    0.04910788839156085    
  0.049781727287124836    0.05047539992987052    0.05119676270778474    0.05191731420150532    0.05258278993720155    
  0.05313077785501129    0.0535072475566915    0.05367686673095499    0.0536265504918052    0.053365793252908265    
  0.052926377622298446    0.054654986413334355    0.053936723609066206    0.05309173355627297    0.05220549362168569    
  0.05135395388815793    0.05057601607840718    0.04985559289889449    0.04913141307822689    0.0483394554529921    
  0.04746311063189665    0.046550337612425476    0.04568342744035499    0.0449329983377854    0.044338789632956024    
  0.04392304842135881    0.04370625100976565    0.04370318606716094    0.04391168002159155    0.044315310795060146    
  0.04489513603565463    0.04562723371579387    0.0464640730868788    0.04732936221395587    0.048148924633986886    
  0.04889682783153934    0.04961118843535055    0.05036164079960027    0.05119676270778474    0.0521117075437732    
  0.05305028840589145    0.053928623661034    0.05466184296343564    0.055183007528621646    0.05545066719311746    
  0.05544707456828128    0.055174292719991185    0.054654986413334355    0.056603932382055314    0.05582387956879293    
  0.0548255738458607    0.05370355958980122    0.0525747183620308    0.0515422615143986    0.050654082250167924    
  0.049879710708343135    0.04913141307822688    0.04832702317411323    0.0474504389828038    0.046560099125511    
  0.04574460505933559    0.045074119890535454    0.044587330233952394    0.0443054289246773    0.04424195985600451    
  0.04439974408589476    0.04476941015795164    0.04533366583445989    0.046062758216142176    0.046899061473949906    
  0.04775776953095986    0.04856546410418168    0.04931214727466138    0.0500635609827268    0.050913930061858355    
  0.05191731420150532    0.05305028840589145    0.05422284736153709    0.055317158218120506    0.056226925383539156    
  0.05688176351616829    0.05725071000610662    0.05732737799994286    0.05711128150206034    0.056603932382055314    
  0.05839968983921707    0.057719848824225754    0.05672381757930601    0.05547571976009565    0.054106508500335056    
  0.052774539720164645    0.05160852104378779    0.05065408225016793    0.04985559289889449    0.04909785737333817    
  0.04828907479409962    0.04742285444653587    0.04657163001478461    0.045829920361465465    0.04526597967185672    
  0.04491292897643948    0.04478315489019501    0.04488002709987507    0.04520084093061691    0.04573381060114811    
  0.04644652795528838    0.047271787314751214    0.048116360694912284    0.048908956284857544    0.04965664995513251    
  0.050451452573619576    0.05140841152926187    0.05258278993720155    0.053928623661034    0.055317158218120506    
  0.05659010365649316    0.05761600722013724    0.05832925652044611    0.058735312513019805    0.05887501971579305    
  0.058770710376291106    0.05839968983921707    0.05954554700120804    0.05917817929273859    0.05843028074938914    
  0.05727415023576596    0.05581510019564441    0.05424654071694275    0.052774539720164645    0.051542261514398585    
  0.05057601607840718    0.04978476181013918    0.04902911826527926    0.048220362163140656    0.04737388675668622    
  0.0465811211023453    0.04594013437301235    0.04550953322133321    0.04530807227948192    0.04533718155867255    
  0.04559709160735777    0.046083338132889055    0.04676625016724135    0.047572560621610145    0.04840008629289385    
  0.04917666751012122    0.049923072564319056    0.050754681742624264    0.05180535288815415    0.05313077785501128    
  0.054661842963435646    0.056226925383539156    0.05761600722013725    0.05865769073380294    0.05928825002022194    
  0.05957646880829057    0.059667150085430304    0.05966459682509901    0.05954554700120804    0.059577836636408345    
  0.05971907420899434    0.05951568992084805    0.05875700803488126    0.05745682408154027    0.05581510019564439    
  0.05410650850033504    0.05257471836203081    0.05135395388815793    0.050429587327567436    0.04966780387603914    
  0.04891584627116211    0.0481079734874347    0.0472953495439235    0.04658813971081071    0.0460766193765728    
  0.045797855146102504    0.0457542792365169    0.045944881451873504    0.04637108347006385    0.047011046087933404    
  0.04779184036401978    0.04860314445638695    0.04936573797299397    0.050105399072815665    0.050955481105753514    
  0.052069099599331335    0.0535072475566915    0.05518300752862163    0.05688176351616829    0.05832925652044611    
  0.05928825002022199    0.05967307978417633    0.05962343688615929    0.05944541519212335    0.05941449149201936    
  0.059577836636408345    0.058358764917019745    0.05906529533655322    0.059639172946129464    0.05959574774588388    
  0.058757008034881236    0.05727415023576596    0.05547571976009565    0.05370355958980121    0.05220549362168568    
  0.05107232610681828    0.05022714917664822    0.04949661900673713    0.04873920991501943    0.047937558510951384    