#     DFTpy    
  CRYSTAL 
    
  PRIMVEC    
  -1.755    1.755    1.755    
  1.755    -1.755    1.755    
  1.755    1.755    -1.755    
  PRIMCOORD    
  1    1    
  Li    0.0    0.0    0.0    
  BEGIN_BLOCK_DATAGRID_3D    
  3d_datagrid_density    
  BEGIN_DATAGRID_3D#0    
  37    37    37    
  0.0    0.0    0.0    
  -1.75499999887519    1.75499999887519    1.75499999887519    
  1.75499999887519    -1.75499999887519    1.75499999887519    
  1.75499999887519    1.75499999887519    -1.75499999887519    
  19.177435323183964    17.201340224907728    12.399106218163102    7.17837857535696    3.3781627330896873    
  1.3678843989938072    0.549567029879059    0.2544514236681897    0.1363260287340806    0.08382556184394442    
  0.06143474035297611    0.052448901566233594    0.049316132826135756    0.04855730139541346    0.04867644257613832    
  0.04901276572661243    0.04934134729892828    0.04958141347884337    0.049664464851296566    0.04958141347884302    
  0.04934134729892828    0.049012765726612846    0.048676442576137166    0.048557301395413775    0.049316132826135756    
  0.05244890156623368    0.061434740352975685    0.08382556184394482    0.1363260287340806    0.25445142366818935    
  0.5495670298790589    1.3678843989938068    3.3781627330896873    7.17837857535696    12.399106218163102    
  17.201340224907728    19.177435323183964    17.201340224907728    16.588153950114762    12.859185130896384    
  8.006255224854566    4.032418392921161    1.7107452199102324    0.6871435133582667    0.3074466071140242    
  0.1599359069725393    0.09455147981866746    0.0659878256143463    0.05423791590422488    0.049885634796986475    
  0.04864818446220547    0.04859787203235589    0.04890823346994082    0.04924955753787595    0.04952981060840255    
  0.04966968816073798    0.04964158608779602    0.04944917294411881    0.049140050479628675    0.04879476973008392    
  0.04854484012261035    0.0488671651662686    0.050840943194049554    0.05702200907794193    0.07292400702986936    
  0.11084843900795534    0.19609980842041735    0.3946999069798923    0.926905091876554    2.308444019639228    
  5.1819412642756175    9.606327924222365    14.343352936222665    17.201340224907728    12.3991062181631    
  12.859185130896382    10.716765892069516    7.178372803054917    3.891514260568468    1.7675447087568459    
  0.7434632178159867    0.3372193935667726    0.17541994813421166    0.10254699086209614    0.0697249397361157    
  0.055845136791929845    0.05046181479637215    0.04878100952454032    0.04856035271925742    0.048829379036918724    
  0.0491767194158763    0.049482381176700584    0.04966971727185309    0.04969857209375414    0.04956101760576595    
  0.049289646735439265    0.04894933705681133    0.048626095370604944    0.04860826567539569    0.04964349625240571    
  0.05341876043050192    0.06368622306540739    0.08847450041041076    0.1447105121194919    0.26744905200312946    
  0.5628449020532589    1.3258691675901206    3.0409681743177175    5.987409298434654    9.606327924222365    
  12.3991062181631    7.17837857535696    8.006255224854568    7.178372803054917    5.181931486089964    
  3.0409584117111272    1.503824573183167    0.6871427274506176    0.33092834802098386    0.17782097356222806    
  0.10552340254284656    0.07167881831795776    0.05687091608039693    0.05089811693279603    0.04890496866517308    
  0.0485465964314487    0.04877839779197929    0.049127122486444824    0.049450399991994264    0.04966842790785615    
  0.04975052203516454    0.04966944627995463    0.04944945859825337    0.04912876385477631    0.04878128490813613    
  0.048550763386101904    0.048911444267708645    0.050901620955649755    0.056874176463912546    0.071681842402795    
  0.10552485169407537    0.1778228953501728    0.3309290538927091    0.6871460280798204    1.5038323344826903    
  3.0409681743177175    5.1819412642756175    7.17837857535696    3.3781627330896873    4.032418392921161    
  3.89151426056847    3.0409584117111272    1.951429666014729    1.0719081284372884    0.5495716123731995    
  0.2914580875886154    0.16631593829934732    0.1025593817546576    0.07128487567635486    0.05703445597497824    
  0.05106682535414287    0.04898152426532801    0.04854634901697628    0.048750648044077194    0.04909313328980572    
  0.04942874351290424    0.04967352426021482    0.04980013128394839    0.049773205424069294    0.04960574321690378    
  0.049324210469499495    0.04897809549639944    0.048654658787253335    0.048588298706979456    0.04941950526430079    
  0.05246333449899593    0.06055611117070768    0.07920150130291136    0.11920803785859653    0.1989547901032601    
  0.3572159020311103    0.6871460280798204    1.3258691675901206    2.308444019639228    3.3781627330896873    
  1.3678843989938063    1.7107452199102318    1.7675447087568459    1.503824573183167    1.071908128437288    
  0.6696528178602357    0.39470868089142713    0.23484100474126746    0.1447311141464424    0.09457390650873984    
  0.06865736647378266    0.05629292863697428    0.05091581049467132    0.04897518930436962    0.04854931925259893    
  0.04874522331084345    0.049084061148300134    0.0494210492838146    0.049683406403052736    0.049838261416917266    
  0.04986206108990128    0.04974585467232382    0.04952264242327608    0.04920095732804923    0.04885660515171332    
  0.04857725127181588    0.048722519655071794    0.05000766726834808    0.05393518870485801    0.0634315785058974    
  0.08383484641583888    0.12449292162313613    0.19895479010326    0.33092905389270855    0.5628449020532588    
  0.926905091876554    1.3678843989938063    0.549567029879059    0.6871435133582663    0.7434632178159865    
  0.6871427274506171    0.5495716123731993    0.39470868089142697    0.2674657179384026    0.17784244862248627    
  0.1192278699874874    0.08385635508886033    0.06454053416147637    0.05484888452985209    0.050490342724812766    
  0.048884961483651665    0.04854887623862679    0.048753025716940866    0.049093947713186    0.049433074807496286    
  0.049704433569708335    0.04987253420518896    0.04993680637846132    0.04987338512749915    0.049707510097979156    
  0.049435989755579716    0.04909871005127132    0.04875762714431528    0.048553307778762746    0.048883924741469145    
  0.05048106632031562    0.05483438145647631    0.06452109023556964    0.083834846415839    0.11920803785859653    
  0.17782289535017268    0.26744905200312935    0.3946999069798921    0.549567029879059    0.25445142366818985    
  0.3074466071140241    0.33721939356677255    0.33092834802098375    0.2914580875886153    0.2348410047412673    
  0.17784244862248635    0.13021272132213707    0.09541040912108634    0.07296039375112931    0.059944325429005435    
  0.05307721449702595    0.049914431450846966    0.04875073269162872    0.04855908814544764    0.04878349474617545    
  0.049116896509728294    0.049454208651044565    0.0497294699020214    0.04990887611758508    0.04999635778542792    
  0.04998190564539688    0.049867633815493737    0.04965918019325969    0.049360527501262574    0.04901577061742657    
  0.04869745103232737    0.04856343550219674    0.0489943590314889    0.05066856581740843    0.05483438145647644    
  0.06343157850589752    0.07920150130291148    0.10552485169407548    0.14471051211949224    0.19609980842041777    
  0.25445142366818985    0.13632602873408095    0.15993590697253965    0.17541994813421194    0.17782097356222828    
  0.16631593829934735    0.1447311141464424    0.11922786998748751    0.09541040912108628    0.07664630886584516    
  0.0637241595652579    0.055743330416514074    0.051368308895645046    0.04933607998423603    0.048620900389004094    
  0.048585449176858746    0.0488378049194542    0.04916323137932286    0.04949322012538058    0.049760859243597036    
  0.04994473092024147    0.05004170975795932    0.05005720773442023    0.04999787873196599    0.04984783592778817    
  0.049615660712119786    0.04930191817451524    0.048965452665253574    0.048673399705574244    0.04857029531644078    
  0.04899435903148887    0.05048106632031573    0.053935188704858264    0.06055611117070783    0.07168184240279511    
  0.08847450041041112    0.11084843900795581    0.13632602873408095    0.083825561843945    0.09455147981866811    
  0.10254699086209641    0.10552340254284677    0.10255938175465766    0.09457390650873986    0.08385635508886051    
  0.07296039375112931    0.06372415956525786    0.05691075007293504    0.052482975927998554    0.050010524471573815    
  0.048877239675722585    0.04854500367856302    0.04864632063558239    0.04891782100057511    0.04923147856199006    
  0.049544928296317126    0.04979825546732039    0.04997385583531138    0.05007645179770717    0.050106151931738875    
  0.050088701598317686    0.04999729119995157    0.04982487939832676    0.04957729773204432    0.04926651468880337    
  0.04895005577331234    0.04867339970557429    0.04856343550219674    0.048883924741469215    0.05000766726834816    
  0.052463334498995956    0.05687417646391251    0.06368622306540757    0.07292400702986943    0.083825561843945    
  0.06143474035297707    0.06598782561434738    0.06972493973611638    0.07167881831795808    0.07128487567635496    
  0.06865736647378273    0.06454053416147648    0.0599443254290054    0.05574333041651397    0.05248297592799841    
  0.050318742170259625    0.04911445986346987    0.0486061011454035    0.04855334429075322    0.04874569167957047    
  0.04902228299041899    0.04932001930466735    0.04960284440974416    0.04983830230662267    0.05000393632916215    
  0.05010385764512761    0.05014828352111735    0.0501467208663326    0.0501003570340967    0.049989135452348676    
  0.04980577916710604    0.049558697726164704    0.04926651468880342    0.048965452665253636    0.048697451032327414    
  0.048553307778762926    0.048722519655072016    0.04941950526430135    0.050901620955650526    0.0534187604305037    
  0.057022009077943615    0.06143474035297707    0.05244890156623362    0.054237915904224436    0.05584513679192913    
  0.056870916080396614    0.05703445597497798    0.056292928636974195    0.05484888452985221    0.053077214497025946    
  0.05136830889564499    0.05001052447157383    0.04911445986347006    0.04864815687994425    0.048530888057290306    
  0.04865044869329844    0.048879593980218426    0.049146284913740006    0.04942437995688043    0.04967114495895875    
  0.049876563999586    0.05003192285179895    0.05012273230359196    0.05017539702530779    0.050190615495985545    
  0.050165878969553206    0.05010864689315615    0.049989246788297456    0.04980577916710601    0.04957729773204434    
  0.04930191817451524    0.049015770617426506    0.04875762714431532    0.04857725127181598    0.04858829870697945    
  0.04891144426770846    0.04964349625240576    0.05084094319404919    0.05244890156623362    0.04931613282613557    
  0.04988563479698709    0.05046181479637211    0.05089811693279595    0.0510668253541429    0.0509158104946715    
  0.05049034272481302    0.04991443145084711    0.04933607998423609    0.04887723967572271    0.04860610114540378    
  0.04853088805729044    0.04861837453849682    0.04880788534210318    0.04904063923801197    0.049292458115789126    
  0.04953833279236    0.04974683201529716    0.04991652270398435    0.05004805300111508    0.050135830421697336    
  0.050190944846541255    0.05021855665868306    0.05021204514184353    0.050176943505106625    0.050108646893156125    
  0.04998913545234869    0.04982487939832687    0.04961566071211987    0.049360527501262644    0.04909871005127146    
  0.04885660515171344    0.04865465878725343    0.0485507633861018    0.04860826567539538    0.04886716516626799    
  0.04931613282613557    0.04855730139541448    0.04864818446220644    0.048781009524540994    0.04890496866517344    
  0.04898152426532819    0.04897518930436976    0.048884961483651776    0.04875073269162877    0.04862090038900405    
  0.04854500367856303    0.0485533442907534    0.04865044869329852    0.04880788534210315    0.0490008535692941    
  0.04921935010492488    0.049445882473483596    0.04965068059794811    0.04982252859333966    0.04996541809041684    
  0.050067541436239184    0.05014225303595792    0.05019970890313808    0.05022943664226659    0.050234008696328006    
  0.05021204514184346    0.050165878969553095    0.05010035703409663    0.04999729119995161    0.04984783592778816    
  0.0496591801932597    0.04943598975557981    0.04920095732804933    0.048978095496399615    0.04878128490813633    
  0.048626095370605395    0.04854484012261036    0.04855730139541448    0.048676442576138144    0.04859787203235601    
  0.04856035271925749    0.04854659643144829    0.048546349016976395    0.04854931925259906    0.04854887623862684    
  0.04855908814544764    0.048585449176858614    0.048646320635582316    0.048745691679570526    0.04887959398021847    
  0.04904063923801192    0.04921935010492488    0.04941111254765537    0.04959536524334635    0.049759240224076406    
  0.04990011872218211    0.05001167735399201    0.05008712777457468    0.05014311357977984    0.05018866362026993    
  0.05021882127093515    0.050229436642266694    0.050218556658683126    0.05019061549598557    0.05014672086633269    
  0.05008870159831781    0.04999787873196596    0.04986763381549369    0.04970751009797919    0.049522642423276225    
  0.04932421046949962    0.04912876385477666    0.048949337056812    0.04879476973008435    0.048676442576138144    
  0.04901276572661251    0.0489082334699412    0.04882937903691885    0.04877839779197924    0.04875064804407726    
  0.04874522331084361    0.048753025716940894    0.04878349474617557    0.04883780491945414    0.048917821000575006    
  0.049022282990418976    0.04914628491373997    0.04929245811578899    0.04944588247348349    0.04959536524334627    
  0.049733405319723104    0.04985971994739398    0.04996782179829249    0.050045729228960965    0.05009654259830827    
  0.05013861113312611    0.05017003022638104    0.05018866362027007    0.05019970890313818    0.05019094484654127    
  0.050175397025307725    0.05014828352111737    0.05010615193173895    0.05005720773442015    0.04998190564539677    
  0.049873385127499115    0.049745854672323765    0.04960574321690358    0.049449458598252956    0.04928964673543891    
  0.04914005047962795    0.04901276572661251    0.04934134729892843    0.049249557537876375    0.04917671941587685    
  0.04912712248644495    0.049093133289806024    0.049084061148300405    0.04909394771318604    0.049116896509728586    
  0.049163231379322936    0.0492314785619901    0.04932001930466746    0.0494243799568805    0.049538332792359994    
  0.049650680597948124    0.04975924022407644    0.049859719947394035    0.04994757258830411    0.05001456516370595    
  0.05006349559414549    0.050103105694664134    0.050126073561184564    0.050138611133126065    0.05014311357977996    
  0.05014225303595793    0.05013583042169728    0.05012273230359189    0.050103857645127634    0.05007645179770729    
  0.0500417097579593    0.049996357785427915    0.04993680637846138    0.049862061089901384    0.04977320542406918    
  0.04966944627995487    0.04956101760576592    0.049449172944118595    0.04934134729892843    0.04958141347884259    
  0.049529810608402135    0.04948238117670055    0.049450399991993875    0.04942874351290412    0.049421049283814515    
  0.04943307480749613    0.04945420865104468    0.0494932201253805    0.04954492829631705    0.04960284440974417    
  0.04967114495895879    0.04974683201529717    0.04982252859333969    0.049900118722182175    0.04996782179829251    
  0.0500145651637059    0.05004867470454338    0.05007264569838379    0.05009435514745879    0.050103105694664085    
  0.05009654259830822    0.050087127774574816    0.05006754143623918    0.05004805300111503    0.0500319228517989    
  0.05000393632916221    0.04997385583531154    0.04994473092024153    0.04990887611758513    0.049872534205189105    
  0.04983826141691749    0.04980013128394853    0.04975052203516457    0.04969857209375416    0.049641586087795384    
  0.04958141347884259    0.04966446485129574    0.0496696881607379    0.04966971727185292    0.049668427907855785    
  0.04967352426021477    0.04968340640305271    0.04970443356970828    0.0497294699020216    0.04976085924359703    
  0.04979825546732032    0.0498383023066227    0.04987656399958603    0.04991652270398439    0.04996541809041688    
  0.050011677353992076    0.05004572922896094    0.050063495594145364    0.05007264569838372    0.050077680257140274    
  0.050072645698383676    0.050063495594145364    0.0500457292289609    0.0500116773539922    0.04996541809041693    
  0.04991652270398439    0.049876563999586024    0.04983830230662273    0.04979825546732048    0.04976085924359703    
  0.049729469902021366    0.049704433569708314    0.04968340640305279    0.049673524260214735    0.04966842790785593    
  0.0496697172718527    0.04966968816073717    0.04966446485129574    0.049581413478842415    0.04964158608779606    
  0.049698572093754466    0.04975052203516451    0.04980013128394857    0.04983826141691734    0.04987253420518903    
  0.04990887611758533    0.04994473092024152    0.04997385583531137    0.050003936329162176    0.05003192285179893    
  0.05004805300111503    0.05006754143623912    0.05008712777457471    0.05009654259830827    0.050103105694664085    
  0.05009435514745882    0.050072645698383794    0.050048674704543376    0.0500145651637059    0.049967821798292476    
  0.0499001187221823    0.04982252859333974    0.04974683201529717    0.04967114495895879    0.049602844409744225    
  0.04954492829631721    0.0494932201253805    0.04945420865104447    0.04943307480749616    0.049421049283814564    
  0.049428743512904105    0.04945039999199399    0.04948238117670021    0.049529810608401184    0.049581413478842415    
  0.049341347298927904    0.04944917294411878    0.049561017605765874    0.04966944627995461    0.04977320542406916    
  0.04986206108990118    0.04993680637846134    0.04999635778542804    0.0500417097579593    0.05007645179770714    
  0.05010385764512763    0.05012273230359193    0.05013583042169728    0.050142253035957866    0.05014311357977989    
  0.05013861113312617    0.050126073561184564    0.05010310569466413    0.0500634955941455    0.050014565163705976    
  0.04994757258830411    0.049859719947393966    0.04975924022407656    0.04965068059794818    0.049538332792359994    
  0.04942437995688049    0.04932001930466753    0.04923147856199027    0.049163231379322915    0.049116896509728364    
  0.04909394771318605    0.04908406114830024    0.04909313328980594    0.04912712248644479    0.04917671941587602    
  0.04924955753787536    0.049341347298927904    0.04901276572661213    0.049140050479627995    0.049289646735438675    
  0.04944945859825285    0.0496057432169035    0.04974585467232365    0.04987338512749909    0.049981905645396896    
  0.050057207734420135    0.0501061519317388    0.050148283521117366    0.05017539702530779    0.050190944846541276    
  0.05019970890313811    0.05018866362027004    0.05017003022638119    0.05013861113312611    0.050096542598308216    
  0.05004572922896099    0.04996782179829258    0.04985971994739398    0.04973340531972298    0.049595365243346366    
  0.049445882473483554    0.04929245811578899    0.049146284913739936    0.04902228299041905    0.048917821000575165    
  0.04883780491945413    0.048783494746175424    0.04875302571694083    0.04874522331084345    0.04875064804407707    
  0.048778397791979164    0.04882937903691802    0.04890823346994017    0.04901276572661213    0.048676442576137284    
  0.04879476973008462    0.04894933705681181    0.049128763854776394    0.049324210469499606    0.04952264242327608    
  0.04970751009797917    0.049867633815493764    0.04999787873196597    0.05008870159831771    0.0501467208663327    
  0.05019061549598563    0.05021855665868313    0.050229436642266596    0.050218821270935146    0.050188663620270114    
  0.05014311357977984    0.0500871277745746    0.050011677353992035    0.04990011872218226    0.049759240224076406    
  0.049595365243346165    0.04941111254765545    0.04921935010492496    0.04904063923801192    0.04887959398021844    
  0.04874569167957057    0.04864632063558247    0.048585449176858614    0.04855908814544756    0.04854887623862672    
  0.04854931925259888    0.04854634901697617    0.048546596431448215    0.04856035271925663    0.04859787203235538    
  0.048676442576137284    0.04855730139541477    0.04854484012261117    0.048626095370605714    0.04878128490813626    
  0.04897809549639966    0.0492009573280493    0.049435989755579786    0.04965918019325972    0.04984783592778816    
  0.049997291199951555    0.05010035703409666    0.05016587896955313    0.05021204514184345    0.0502340086963279    
  0.0502294366422666    0.05019970890313827    0.05014225303595792    0.050067541436239094    0.049965418090416866    
  0.04982252859333982    0.0496506805979481    0.049445882473483395    0.04921935010492494    0.04900085356929418    
  0.04880788534210315    0.048650448693298494    0.04855334429075342    0.048545003678563146    0.04862090038900406    
  0.04875073269162868    0.04888496148365173    0.04897518930436972    0.04898152426532831    0.0489049686651737    
  0.04878100952454131    0.04864818446220683    0.04855730139541477    0.04931613282613557    0.04886716516626916    
  0.04860826567539561    0.04855076338610177    0.048654658787253446    0.04885660515171339    0.04909871005127137    
  0.049360527501262616    0.04961566071211987    0.049824879398326846    0.04998913545234874    0.05010864689315616    
  0.050176943505106625    0.050212045141843416    0.050218556658683085    0.05019094484654142    0.050135830421697336    
  0.050048053001115034    0.04991652270398437    0.049746832015297324    0.04953833279236    0.04929245811578894    
  0.04904063923801201    0.0488078853421033    0.04861837453849682    0.0485308880572904    0.048606101145403764    
  0.048877239675722765    0.0493360799842361    0.049914431450847084    0.05049034272481299    0.05091581049467143    
  0.05106682535414287    0.050898116932795966    0.050461814796371816    0.04988563479698597    0.04931613282613557    
  0.05244890156623404    0.0508409431940499    0.049643496252405356    0.04891144426770869    0.048588298706979574    
  0.04857725127181585    0.04875762714431521    0.04901577061742646    0.04930191817451526    0.049577297732044355    
  0.04980577916710609    0.04998924678829748    0.050108646893156146    0.05016587896955311    0.05019061549598558    
  0.05017539702530792    0.05012273230359196    0.05003192285179895    0.049876563999586    0.04967114495895888    
  0.04942437995688043    0.049146284913739874    0.048879593980218454    0.048650448693298584    0.048530888057290306    
  0.04864815687994422    0.04911445986347    0.050010524471573836    0.05136830889564499    0.05307721449702595    
  0.05484888452985215    0.05629292863697426    0.05703445597497807    0.05687091608039679    0.055845136791929845    
  0.054237915904224526    0.05244890156623404    0.061434740352975956    0.05702200907794218    0.053418760430502026    
  0.0509016209556497    0.04941950526430094    0.048722519655071815    0.04855330777876279    0.04869745103232728    
  0.04896545266525363    0.04926651468880343    0.04955869772616479    0.04980577916710604    0.049989135452348676    
  0.050100357034096606    0.05014672086633264    0.05014828352111742    0.050103857645127606    0.0500039363291622    
  0.04983830230662268    0.04960284440974421    0.049320019304667354    0.0490222829904189    0.04874569167957049    
  0.04855334429075335    0.0486061011454035    0.04911445986346983    0.05031874217025956    0.05248297592799837    
  0.05574333041651394    0.05994432542900539    0.06454053416147643    0.06865736647378275    0.07128487567635483    
  0.07167881831795786    0.06972493973611585    0.06598782561434574    0.061434740352975956    0.08382556184394425    
  0.07292400702986884    0.06368622306540649    0.05687417646391207    0.05246333449899554    0.05000766726834794    
  0.04888392474146917    0.0485634355021966    0.04867339970557428    0.04895005577331236    0.04926651468880344    
  0.04957729773204429    0.04982487939832677    0.049997291199951534    0.050088701598317714    0.05010615193173888    
  0.05007645179770717    0.04997385583531148    0.0497982554673204    0.04954492829631713    0.04923147856199007    
  0.048917821000575075    0.04864632063558242    0.0485450036785631    0.048877239675722585    0.05001052447157378    
  0.05248297592799851    0.056910750072934994    0.06372415956525787    0.07296039375112937    0.08385635508886044    
  0.09457390650873997    0.1025593817546576    0.10552340254284646    0.10254699086209593    0.09455147981866723    
  0.08382556184394425    0.1363260287340802    0.11084843900795516    0.08847450041041047    0.07168184240279489    
  0.06055611117070756    0.05393518870485801    0.05048106632031564    0.048994359031488764    0.04857029531644077    
  0.04867339970557424    0.04896545266525364    0.04930191817451518    0.049615660712119786    0.04984783592778822    
  0.049997878731966004    0.05005720773442021    0.05004170975795932    0.04994473092024161    0.04976085924359706    
  0.049493220125380516    0.04916323137932286    0.0488378049194542    0.04858544917685875    0.04862090038900409    
  0.049336079984236024    0.051368308895645046    0.05574333041651404    0.06372415956525784    0.07664630886584516    
  0.09541040912108636    0.11922786998748743    0.14473111414644244    0.16631593829934718    0.17782097356222765    
  0.17541994813421163    0.15993590697253884    0.1363260287340802    0.25445142366819024    0.196099808420418    
  0.14471051211949212    0.1055248516940757    0.07920150130291151    0.06343157850589755    0.05483438145647645    
  0.050668565817408404    0.048994359031488896    0.048563435502196724    0.04869745103232744    0.04901577061742648    
  0.049360527501262574    0.04965918019325979    0.04986763381549375    0.04998190564539683    0.04999635778542792    
  0.049908876117585266    0.04972946990202142    0.04945420865104448    0.049116896509728294    0.048783494746175465    
  0.04855908814544765    0.04875073269162864    0.04991443145084696    0.05307721449702597    0.059944325429005414    
  0.0729603937511293    0.09541040912108634    0.1302127213221371    0.17784244862248624    0.23484100474126743    
  0.2914580875886154    0.3309283480209836    0.337219393566773    0.3074466071140248    0.25445142366819024    
  0.549567029879059    0.3946999069798923    0.26744905200312935    0.1778228953501727    0.1192080378585965    
  0.08383484641583899    0.06452109023556969    0.0548343814564763    0.05048106632031562    0.0488839247414691    
  0.04855330777876283    0.048757627144315197    0.04909871005127132    0.049435989755579834    0.04970751009797918    
  0.04987338512749909    0.04993680637846132    0.04987253420518918    0.04970443356970836    0.04943307480749617    
  0.049093947713186    0.048753025716940894    0.04854887623862678    0.04888496148365154    0.050490342724812766    
  0.05484888452985213    0.06454053416147634    0.08385635508886037    0.1192278699874874    0.17784244862248622    
  0.2674657179384024    0.394708680891427    0.5495716123731993    0.687142727450617    0.7434632178159866    
  0.6871435133582663    0.549567029879059    1.3678843989938065    0.9269050918765538    0.5628449020532589    
  0.3309290538927088    0.19895479010326    0.12449292162313616    0.08383484641583894    0.06343157850589742    
  0.05393518870485802    0.050007667268347974    0.048722519655071905    0.04857725127181585    0.04885660515171332    
  0.049200957328049306    0.04952264242327616    0.0497458546723237    0.04986206108990128    0.049838261416917565    
  0.049683406403052764    0.04942104928381445    0.049084061148300134    0.048745223310843515    0.04854931925259885    
  0.04897518930436952    0.05091581049467132    0.05629292863697428    0.06865736647378264    0.09457390650873992    
  0.1447311141464424    0.23484100474126732    0.3947086808914269    0.6696528178602357    1.0719081284372884    
  1.5038245731831665    1.7675447087568459    1.7107452199102313    1.3678843989938065    3.3781627330896873    
  2.3084440196392273    1.3258691675901209    0.6871460280798203    0.3572159020311102    0.1989547901032601    
  0.1192080378585966    0.07920150130291143    0.06055611117070768    0.05246333449899574    0.049419505264301    
  0.048588298706979484    0.048654658787253335    0.04897809549639946    0.04932421046949969    0.04960574321690358    
  0.04977320542406929    0.04980013128394879    0.049673524260214846    0.049428743512904105    0.04909313328980572    
  0.0487506480440773    0.048546349016976055    0.04898152426532801    0.05106682535414287    0.057034455974978186    
  0.0712848756763548    0.10255938175465769    0.16631593829934732    0.29145808758861513    0.5495716123731993    
  1.0719081284372882    1.9514296660147288    3.040958411711127    3.891514260568468    4.032418392921161    
  3.3781627330896873    7.17837857535696    5.1819412642756175    3.0409681743177175    1.5038323344826898    
  0.6871460280798204    0.33092905389270916    0.17782289535017284    0.10552485169407551    0.071681842402795    
  0.05687417646391224    0.05090162095565006    0.04891144426770865    0.048550763386101904    0.04878128490813606    
  0.049128763854776686    0.04944945859825305    0.04966944627995463    0.04975052203516502    0.04966842790785617    
  0.04945039999199414    0.049127122486444824    0.048778397791979435    0.0485465964314482    0.04890496866517321    
  0.05089811693279603    0.05687091608039687    0.0716788183179577    0.10552340254284669    0.17782097356222804    