<UPF version="2.0.1">
<PP_INFO>
  Converted from PSP8 format: PGBRV_PBE_TF02vW.psp8
  Element: Li, Z=3.0, Z_valence=3.0
  XC functional: LDA
</PP_INFO>
<PP_HEADER element="Li" z_valence="3.00000000" pseudo_type="NC" relativistic="scalar" is_ultrasoft="false" is_paw="false" core_correction="false" functional="LDA" mesh_size="751" number_of_wfc="0" number_of_proj="0" has_so="false"/>
<PP_MESH dx="1.66986355e-02" mesh="751" xmin="-1.10859997e+01" rmax="8.156367346080000E+01" zmesh="3.00000000">
  <PP_R type="real" size="751" columns="6">
     0.000000000000000E+00  5.108463195460000E-06  1.030278091120000E-05  1.558439604650000E-05  2.095477575080000E-05  2.641541183070000E-05
 3.196782116470000E-05  3.761354612430000E-05  4.335415500300000E-05  4.919124245100000E-05  5.512642991920000E-05  6.116136610890000E-05
 6.729772743010000E-05  7.353721846699999E-05  7.988157245170001E-05  8.633255174560000E-05  9.289194832869999E-05  9.956158429800000E-05
 1.063433123730000E-04  1.132390164110000E-04  1.202506119280000E-04  1.273800466370000E-04  1.346293009810000E-04  1.420003886880000E-04
 1.494953573310000E-04  1.571162888930000E-04  1.648653003490000E-04  1.727445442510000E-04  1.807562093300000E-04  1.889025210990000E-04
 1.971857424740000E-04  2.056081744050000E-04  2.141721565100000E-04  2.228800677270000E-04  2.317343269770000E-04  2.407373938340000E-04
 2.498917692060000E-04  2.591999960360000E-04  2.686646600010000E-04  2.782883902360000E-04  2.880738600600000E-04  2.980237877230000E-04
 3.081409371580000E-04  3.184281187490000E-04  3.288881901120000E-04  3.395240568910000E-04  3.503386735610000E-04  3.613350442510000E-04
 3.725162235800000E-04  3.838853175040000E-04  3.954454841750000E-04  4.071999348280000E-04  4.191519346610000E-04  4.313048037530000E-04
 4.436619179770000E-04  4.562267099460000E-04  4.690026699600000E-04  4.819933469790000E-04  4.952023496070000E-04  5.086333470980000E-04
 5.222900703709999E-04  5.361763130460000E-04  5.502959325040000E-04  5.646528509510000E-04  5.792510565130000E-04  5.940946043410000E-04
 6.091876177380000E-04  6.245342893040000E-04  6.401388821030000E-04  6.560057308449999E-04  6.721392430880000E-04  6.885439004680000E-04
 7.052242599400000E-04  7.221849550450000E-04  7.394306971950000E-04  7.569662769850000E-04  7.747965655230000E-04  7.929265157810001E-04
 8.113611639720000E-04  8.301056309520000E-04  8.491651236370000E-04  8.685449364530000E-04  8.882504528050000E-04  9.082871465760000E-04
 9.286605836430000E-04  9.493764234240000E-04  9.704404204520000E-04  9.918584259740000E-04  1.013636389570000E-03  1.035780360820000E-03
 1.058296490970000E-03  1.081191034640000E-03  1.104470351570000E-03  1.128140908400000E-03  1.152209280420000E-03  1.176682153460000E-03
 1.201566325690000E-03  1.226868709530000E-03  1.252596333600000E-03  1.278756344620000E-03  1.305356009430000E-03  1.332402716990000E-03
 1.359903980450000E-03  1.387867439240000E-03  1.416300861150000E-03  1.445212144540000E-03  1.474609320520000E-03  1.504500555140000E-03
 1.534894151740000E-03  1.565798553150000E-03  1.597222344150000E-03  1.629174253760000E-03  1.661663157720000E-03  1.694698080940000E-03
 1.728288199990000E-03  1.762442845670000E-03  1.797171505620000E-03  1.832483826900000E-03  1.868389618720000E-03  1.904898855140000E-03
 1.942021677840000E-03  1.979768398970000E-03  2.018149503970000E-03  2.057175654500000E-03  2.096857691410000E-03  2.137206637740000E-03
 2.178233701790000E-03  2.219950280240000E-03  2.262367961280000E-03  2.305498527890000E-03  2.349353961050000E-03  2.393946443110000E-03
 2.439288361160000E-03  2.485392310460000E-03  2.532271097960000E-03  2.579937745860000E-03  2.628405495180000E-03  2.677687809520000E-03
 2.727798378710000E-03  2.778751122690000E-03  2.830560195310000E-03  2.883239988330000E-03  2.936805135350000E-03  2.991270515930000E-03
 3.046651259690000E-03  3.102962750530000E-03  3.160220630890000E-03  3.218440806100000E-03  3.277639448810000E-03  3.337833003470000E-03
 3.399038190900000E-03  3.461272012920000E-03  3.524551757120000E-03  3.588895001610000E-03  3.654319619930000E-03  3.720843785990000E-03
 3.788485979170000E-03  3.857264989400000E-03  3.927199922390000E-03  3.998310204980000E-03  4.070615590460000E-03  4.144136164150000E-03
 4.218892348880000E-03  4.294904910760000E-03  4.372194964860000E-03  4.450783981150000E-03  4.530693790410000E-03  4.611946590320000E-03
 4.694564951640000E-03  4.778571824430000E-03  4.863990544480000E-03  4.950844839770000E-03  5.039158837030000E-03  5.128957068510000E-03
 5.220264478740000E-03  5.313106431460000E-03  5.407508716720000E-03  5.503497557980000E-03  5.601099619410000E-03  5.700342013340000E-03
 5.801252307730000E-03  5.903858533860000E-03  6.008189194130000E-03  6.114273269940000E-03  6.222140229790000E-03  6.331820037390000E-03
 6.443343160080000E-03  6.556740577220000E-03  6.672043788810000E-03  6.789284824270000E-03  6.908496251310000E-03  7.029711184980000E-03
 7.152963296870000E-03  7.278286824470000E-03  7.405716580690000E-03  7.535287963480000E-03  7.667036965750000E-03  7.801000185280000E-03
 7.937214834930000E-03  8.075718752989999E-03  8.216550413649999E-03  8.359748937730000E-03  8.505354103520000E-03  8.653406357830001E-03
 8.803946827249999E-03  8.957017329519999E-03  9.112660385230001E-03  9.270919229560000E-03  9.431837824310001E-03  9.595460870129999E-03
 9.761833818920001E-03  9.931002886450000E-03  1.010301506520000E-02  1.027791813750000E-02  1.045576068860000E-02  1.063659212040000E-02
 1.082046266490000E-02  1.100742339860000E-02  1.119752625610000E-02  1.139082404510000E-02  1.158737046060000E-02  1.178722010000000E-02
 1.199042847860000E-02  1.219705204420000E-02  1.240714819380000E-02  1.262077528870000E-02  1.283799267120000E-02  1.305886068070000E-02
 1.328344067090000E-02  1.351179502670000E-02  1.374398718120000E-02  1.398008163380000E-02  1.422014396780000E-02  1.446424086860000E-02
 1.471244014270000E-02  1.496481073570000E-02  1.522142275230000E-02  1.548234747520000E-02  1.574765738520000E-02  1.601742618120000E-02
 1.629172880080000E-02  1.657064144080000E-02  1.685424157870000E-02  1.714260799430000E-02  1.743582079110000E-02  1.773396141910000E-02
 1.803711269700000E-02  1.834535883530000E-02  1.865878546020000E-02  1.897747963640000E-02  1.930152989230000E-02  1.963102624380000E-02
 1.996606021990000E-02  2.030672488770000E-02  2.065311487840000E-02  2.100532641370000E-02  2.136345733250000E-02  2.172760711780000E-02
 2.209787692470000E-02  2.247436960840000E-02  2.285718975240000E-02  2.324644369830000E-02  2.364223957460000E-02  2.404468732710000E-02
 2.445389874960000E-02  2.486998751440000E-02  2.529306920450000E-02  2.572326134520000E-02  2.616068343720000E-02  2.660545698930000E-02
 2.705770555280000E-02  2.751755475500000E-02  2.798513233480000E-02  2.846056817790000E-02  2.894399435290000E-02  2.943554514790000E-02
 2.993535710800000E-02  3.044356907290000E-02  3.096032221610000E-02  3.148576008330000E-02  3.202002863300000E-02  3.256327627630000E-02
 3.311565391910000E-02  3.367731500300000E-02  3.424841554870000E-02  3.482911419880000E-02  3.541957226230000E-02  3.601995375900000E-02
 3.663042546560000E-02  3.725115696140000E-02  3.788232067570000E-02  3.852409193600000E-02  3.917664901610000E-02  3.984017318610000E-02
 4.051484876250000E-02  4.120086315950000E-02  4.189840694120000E-02  4.260767387410000E-02  4.332886098140000E-02  4.406216859750000E-02
 4.480780042370000E-02  4.556596358470000E-02  4.633686868630000E-02  4.712072987370000E-02  4.791776489110000E-02  4.872819514250000E-02
 4.955224575240000E-02  5.039014562910000E-02  5.124212752790000E-02  5.210842811600000E-02  5.298928803800000E-02  5.388495198290000E-02
 5.479566875200000E-02  5.572169132800000E-02  5.666327694530000E-02  5.762068716160000E-02  5.859418793030000E-02  5.958404967460000E-02
 6.059054736240000E-02  6.161396058280000E-02  6.265457362400000E-02  6.371267555170000E-02  6.478856029000001E-02  6.588252670270001E-02
 6.699487867640000E-02  6.812592520480000E-02  6.927598047480001E-02  7.044536395370000E-02  7.163440047770001E-02  7.284342034240000E-02
 7.407275939430000E-02  7.532275912450000E-02  7.659376676309999E-02  7.788613537609999E-02  7.920022396290000E-02  8.053639755670000E-02
 8.189502732539999E-02  8.327649067480000E-02  8.468117135370000E-02  8.610945956009999E-02  8.756175205010000E-02  8.903845224739999E-02
 9.053997035620000E-02  9.206672347430001E-02  9.361913570980000E-02  9.519763829819999E-02  9.680266972260000E-02  9.843467583550000E-02
 1.000941099820000E-01  1.017814331270000E-01  1.034971139830000E-01  1.052416291380000E-01  1.070154631910000E-01  1.088191088850000E-01
 1.106530672440000E-01  1.125178477140000E-01  1.144139683000000E-01  1.163419557150000E-01  1.183023455240000E-01  1.202956822910000E-01
 1.223225197350000E-01  1.243834208790000E-01  1.264789582080000E-01  1.286097138300000E-01  1.307762796340000E-01  1.329792574600000E-01
 1.352192592580000E-01  1.374969072670000E-01  1.398128341810000E-01  1.421676833280000E-01  1.445621088470000E-01  1.469967758730000E-01
 1.494723607170000E-01  1.519895510580000E-01  1.545490461320000E-01  1.571515569250000E-01  1.597978063750000E-01  1.624885295670000E-01
 1.652244739420000E-01  1.680063995020000E-01  1.708350790220000E-01  1.737112982650000E-01  1.766358561990000E-01  1.796095652190000E-01
 1.826332513760000E-01  1.857077546010000E-01  1.888339289440000E-01  1.920126428050000E-01  1.952447791810000E-01  1.985312359100000E-01
 2.018729259160000E-01  2.052707774680000E-01  2.087257344360000E-01  2.122387565520000E-01  2.158108196790000E-01  2.194429160780000E-01
 2.231360546900000E-01  2.268912614090000E-01  2.307095793740000E-01  2.345920692510000E-01  2.385398095360000E-01  2.425538968490000E-01
 2.466354462390000E-01  2.507855914960000E-01  2.550054854660000E-01  2.592963003690000E-01  2.636592281240000E-01  2.680954806840000E-01
 2.726062903710000E-01  2.771929102150000E-01  2.818566143080000E-01  2.865986981530000E-01  2.914204790260000E-01  2.963232963410000E-01
 3.013085120230000E-01  3.063775108880000E-01  3.115317010220000E-01  3.167725141780000E-01  3.221014061720000E-01  3.275198572850000E-01
 3.330293726780000E-01  3.386314828070000E-01  3.443277438490000E-01  3.501197381370000E-01  3.560090745940000E-01  3.619973891850000E-01
 3.680863453700000E-01  3.742776345640000E-01  3.805729766100000E-01  3.869741202540000E-01  3.934828436330000E-01  4.001009547680000E-01
 4.068302920650000E-01  4.136727248280000E-01  4.206301537760000E-01  4.277045115740000E-01  4.348977633660000E-01  4.422119073250000E-01
 4.496489752030000E-01  4.572110329020000E-01  4.649001810400000E-01  4.727185555430000E-01  4.806683282300000E-01  4.887517074240000E-01
 4.969709385590000E-01  5.053283048080000E-01  5.138261277150000E-01  5.224667678420000E-01  5.312526254210000E-01  5.401861410260000E-01
 5.492697962450001E-01  5.585061143750000E-01  5.678976611190000E-01  5.774470453010000E-01  5.871569195880000E-01  5.970299812300000E-01
 6.070689728080000E-01  6.172766829960000E-01  6.276559473330000E-01  6.382096490160000E-01  6.489407196960000E-01  6.598521402960000E-01
 6.709469418350000E-01  6.822282062740000E-01  6.936990673710000E-01  7.053627115490000E-01  7.172223787849999E-01  7.292813635060000E-01
 7.415430155090000E-01  7.540107408860000E-01  7.666880029760000E-01  7.795783233200000E-01  7.926852826470000E-01  8.060125218630000E-01
 8.195637430640000E-01  8.333427105660000E-01  8.473532519470000E-01  8.615992591170000E-01  8.760846893890000E-01  8.908135665890000E-01
 9.057899821640000E-01  9.210180963290000E-01  9.365021392100000E-01  9.522464120330000E-01  9.682552883050000E-01  9.845332150420000E-01
 1.001084713990000E+00  1.017914382900000E+00  1.035026896790000E+00  1.052427009240000E+00  1.070119553730000E+00  1.088109444970000E+00
 1.106401680260000E+00  1.125001340900000E+00  1.143913593580000E+00  1.163143691830000E+00  1.182696977470000E+00  1.202578882080000E+00
 1.222794928550000E+00  1.243350732580000E+00  1.264252004240000E+00  1.285504549580000E+00  1.307114272210000E+00  1.329087174990000E+00
 1.351429361630000E+00  1.374147038430000E+00  1.397246516030000E+00  1.420734211070000E+00  1.444616648070000E+00  1.468900461210000E+00
 1.493592396120000E+00  1.518699311860000E+00  1.544228182710000E+00  1.570186100210000E+00  1.596580275040000E+00  1.623418039090000E+00
 1.650706847480000E+00  1.678454280590000E+00  1.706668046230000E+00  1.735355981740000E+00  1.764526056170000E+00  1.794186372510000E+00
 1.824345169920000E+00  1.855010826050000E+00  1.886191859320000E+00  1.917896931350000E+00  1.950134849280000E+00  1.982914568320000E+00
 2.016245194150000E+00  2.050135985480000E+00  2.084596356660000E+00  2.119635880210000E+00  2.155264289580000E+00  2.191491481760000E+00
 2.228327520100000E+00  2.265782637080000E+00  2.303867237120000E+00  2.342591899540000E+00  2.381967381430000E+00  2.422004620670000E+00
 2.462714738990000E+00  2.504109045000000E+00  2.546199037400000E+00  2.588996408110000E+00  2.632513045580000E+00  2.676761038030000E+00
 2.721752676870000E+00  2.767500460050000E+00  2.814017095590000E+00  2.861315505070000E+00  2.909408827250000E+00  2.958310421690000E+00
 3.008033872490000E+00  3.058592992030000E+00  3.110001824830000E+00  3.162274651460000E+00  3.215425992490000E+00  3.269470612520000E+00
 3.324423524280000E+00  3.380299992840000E+00  3.437115539790000E+00  3.494885947590000E+00  3.553627263950000E+00  3.613355806280000E+00
 3.674088166230000E+00  3.735841214280000E+00  3.798632104460000E+00  3.862478279090000E+00  3.927397473620000E+00  3.993407721580000E+00
 4.060527359580000E+00  4.128775032390000E+00  4.198169698140000E+00  4.268730633570000E+00  4.340477439390000E+00  4.413430045730000E+00
 4.487608717680000E+00  4.563034060900000E+00  4.639727027350000E+00  4.717708921140000E+00  4.797001404390000E+00  4.877626503320000E+00
 4.959606614300000E+00  5.042964510110000E+00  5.127723346260000E+00  5.213906667410000E+00  5.301538413930000E+00  5.390642928530000E+00
 5.481244963040000E+00  5.573369685280000E+00  5.667042686040000E+00  5.762289986200000E+00  5.859138043950000E+00  5.957613762160000E+00
 6.057744495830000E+00  6.159558059680000E+00  6.263082735930000E+00  6.368347282090000E+00  6.475380938990000E+00  6.584213438890000E+00
 6.694875013740000E+00  6.807396403580000E+00  6.921808865070000E+00  7.038144180190000E+00  7.156434665050000E+00  7.276713178890000E+00
 7.399013133160000E+00  7.523368500870000E+00  7.649813825980000E+00  7.778384232990000E+00  7.909115436750000E+00  8.042043752300000E+00
 8.177206105050001E+00  8.314640040950000E+00  8.454383736980001E+00  8.596476011740000E+00  8.740956336220000E+00  8.887864844759999E+00
 9.037242346230000E+00  9.189130335350001E+00  9.343571004190000E+00  9.500607253929999E+00  9.660282706780000E+00  9.822641718030001E+00
 9.987729388480000E+00  1.015559157690000E+01  1.032627491260000E+01  1.049982680890000E+01  1.067629547570000E+01  1.085572993330000E+01
 1.103818002560000E+01  1.122369643440000E+01  1.141233069330000E+01  1.160413520190000E+01  1.179916324040000E+01  1.199746898460000E+01
 1.219910752060000E+01  1.240413486040000E+01  1.261260795750000E+01  1.282458472240000E+01  1.304012403870000E+01  1.325928578010000E+01
 1.348213082600000E+01  1.370872107950000E+01  1.393911948360000E+01  1.417339003940000E+01  1.441159782350000E+01  1.465380900640000E+01
 1.490009087040000E+01  1.515051182890000E+01  1.540514144460000E+01  1.566405044990000E+01  1.592731076540000E+01  1.619499552070000E+01
 1.646717907450000E+01  1.674393703500000E+01  1.702534628130000E+01  1.731148498430000E+01  1.760243262890000E+01  1.789827003570000E+01
 1.819907938370000E+01  1.850494423300000E+01  1.881594954810000E+01  1.913218172120000E+01  1.945372859660000E+01  1.978067949510000E+01
 2.011312523850000E+01  2.045115817480000E+01  2.079487220430000E+01  2.114436280540000E+01  2.149972706100000E+01  2.186106368560000E+01
 2.222847305300000E+01  2.260205722360000E+01  2.298191997310000E+01  2.336816682160000E+01  2.376090506220000E+01  2.416024379140000E+01
 2.456629393920000E+01  2.497916830000000E+01  2.539898156370000E+01  2.582585034780000E+01  2.625989322970000E+01  2.670123077970000E+01
 2.714998559430000E+01  2.760628233070000E+01  2.807024774070000E+01  2.854201070670000E+01  2.902170227700000E+01  2.950945570230000E+01
 3.000540647290000E+01  3.050969235590000E+01  3.102245343410000E+01  3.154383214430000E+01  3.207397331740000E+01  3.261302421830000E+01
 3.316113458670000E+01  3.371845667900000E+01  3.428514531050000E+01  3.486135789840000E+01  3.544725450540000E+01  3.604299788440000E+01
 3.664875352340000E+01  3.726468969180000E+01  3.789097748700000E+01  3.852779088170000E+01  3.917530677280000E+01  3.983370502990000E+01
 4.050316854560000E+01  4.118388328630000E+01  4.187603834390000E+01  4.257982598800000E+01  4.329544171980000E+01  4.402308432610000E+01
 4.476295593430000E+01  4.551526206930000E+01  4.628021170970000E+01  4.705801734650000E+01  4.784889504180000E+01  4.865306448900000E+01
 4.947074907350000E+01  5.030217593540000E+01  5.114757603180000E+01  5.200718420150000E+01  5.288123923010000E+01  5.376998391630000E+01
 5.467366513930000E+01  5.559253392750000E+01  5.652684552820000E+01  5.747685947830000E+01  5.844283967670000E+01  5.942505445750000E+01
 6.042377666440000E+01  6.143928372670000E+01  6.247185773610000E+01  6.352178552560000E+01  6.458935874830000E+01  6.567487395930000E+01
 6.677863269760000E+01  6.790094156990000E+01  6.904211233600000E+01  7.020246199490001E+01  7.138231287360000E+01  7.258199271590000E+01
 7.380183477410000E+01  7.504217790090000E+01  7.630336664399999E+01  7.758575134190001E+01  7.888968822069999E+01  8.021553949340000E+01
 8.156367346080000E+01
  </PP_R>
  <PP_RAB type="real" size="751" columns="6">
     5.108463195460000E-06  5.151390455600000E-06  5.237966425520000E-06  5.325997419799999E-06  5.415507892099999E-06  5.506522706950001E-06
 5.599067146800000E-06  5.693166919149998E-06  5.788848163350001E-06  5.886137458100001E-06  5.985061828949998E-06  6.085648755450003E-06
 6.187926179049999E-06  6.291922510800000E-06  6.397666639300003E-06  6.505187938499994E-06  6.614516276200002E-06  6.725682022150006E-06
 6.838716056500001E-06  6.953649777499994E-06  7.070515112999996E-06  7.189344526500009E-06  7.310171025500005E-06  7.433028174999993E-06
 7.557950102499993E-06  7.684971509000000E-06  7.814127678999999E-06  7.945454490499996E-06  8.078988424000010E-06  8.214766572000009E-06
 8.352826652999990E-06  8.493207017999993E-06  8.635946660999998E-06  8.781085233499996E-06  8.928663053500011E-06  9.078721114500019E-06
 9.231301100999989E-06  9.386445397499977E-06  9.544197100000006E-06  9.704600029500018E-06  9.867698743500010E-06  1.003353854900000E-05
 1.020216551299999E-05  1.037362647699999E-05  1.054796907100001E-05  1.072524172450001E-05  1.090549368000000E-05  1.108877500949999E-05
 1.127513662650001E-05  1.146463029750002E-05  1.165730866200000E-05  1.185322524299999E-05  1.205243446249999E-05  1.225499165800000E-05
 1.246095309650000E-05  1.267037599150000E-05  1.288331851650001E-05  1.309983982349997E-05  1.332000005949997E-05  1.354386038200000E-05
 1.377148297400003E-05  1.400293106650004E-05  1.423826895250000E-05  1.447756200450000E-05  1.472087669499998E-05  1.496828061250000E-05
 1.521984248150000E-05  1.547563218249996E-05  1.573572077049999E-05  1.600018049250002E-05  1.626908481150002E-05  1.654250842600001E-05
 1.682052728849999E-05  1.710321862749998E-05  1.739066097000003E-05  1.768293416399999E-05  1.798011939800002E-05  1.828229922449999E-05
 1.858955758549997E-05  1.890197983250001E-05  1.921965275049998E-05  1.954266458400002E-05  1.987110506150000E-05  2.020506541900000E-05
 2.054463842400002E-05  2.088991840449997E-05  2.124100127499998E-05  2.159798455900002E-05  2.196096742300001E-05  2.233005069999996E-05
 2.270533691000004E-05  2.308693030000008E-05  2.347493688000001E-05  2.386946442499991E-05  2.427062252999994E-05  2.467852263500004E-05
 2.509327803499998E-05  2.551500395500000E-05  2.594381754500007E-05  2.637983791500007E-05  2.682318618499996E-05  2.727398550999996E-05
 2.773236112499995E-05  2.819844034999996E-05  2.867235265000001E-05  2.915422968500006E-05  2.964420529999998E-05  3.014241561000001E-05
 3.064899900500002E-05  3.116409620500000E-05  3.168785030499999E-05  3.222040678499990E-05  3.276191359000006E-05  3.331252113500003E-05
 3.387238236500002E-05  3.444165281500005E-05  3.502049061499999E-05  3.560905654999996E-05  3.620751411999995E-05  3.681602956000002E-05
 3.743477191500005E-05  3.806391306500009E-05  3.870362776499988E-05  3.935409371999998E-05  4.001549162000015E-05  4.068800519000000E-05
 4.137182124999998E-05  4.206712974499992E-05  4.277412382499993E-05  4.349299988500011E-05  4.422395761000011E-05  4.496720005499983E-05
 4.572293367499994E-05  4.649136840000003E-05  4.727271770000002E-05  4.806719861000014E-05  4.887503182999988E-05  4.969644176499991E-05
 5.053165658500005E-05  5.138090830000006E-05  5.224443282000001E-05  5.312247001999998E-05  5.401526380000000E-05  5.492306216999996E-05
 5.584611730000003E-05  5.678468559999999E-05  5.773902778500001E-05  5.870940896000008E-05  5.969609868499998E-05  6.069937104499984E-05
 6.171950472500009E-05  6.275678310999999E-05  6.381149434499982E-05  6.488393140500017E-05  6.597439218999999E-05  6.708317961999998E-05
 6.821060170500003E-05  6.935697160999972E-05  7.052260778999992E-05  7.170783403500020E-05  7.291297958499999E-05  7.413837920999984E-05
 7.538437330500015E-05  7.665130799000032E-05  7.793953519499982E-05  7.924941277499993E-05  8.058130458500016E-05  8.193558061500008E-05
 8.331261705499986E-05  8.471279641999964E-05  8.613650767000033E-05  8.758414627500028E-05  8.905611436999970E-05  9.055282085500011E-05
 9.207468147500028E-05  9.362211898999995E-05  9.519556326000001E-05  9.679545134499978E-05  9.842222767999977E-05  1.000763441600001E-04
 1.017582602600002E-04  1.034684431999999E-04  1.052073680399999E-04  1.069755178299998E-04  1.087733837250001E-04  1.106014651450003E-04
 1.124602699150001E-04  1.143503143649998E-04  1.162721235249999E-04  1.182262312500000E-04  1.202131803550001E-04  1.222335227800001E-04
 1.242878197450000E-04  1.263766419100001E-04  1.285005695049997E-04  1.306601925300001E-04  1.328561109000003E-04  1.350889345899998E-04
 1.373592838549995E-04  1.396677893599997E-04  1.420150923700002E-04  1.444018449350002E-04  1.468287100500005E-04  1.492963618649999E-04
 1.518054858449993E-04  1.543567789900006E-04  1.569509500200005E-04  1.595887195400001E-04  1.622708202849996E-04  1.649979973049999E-04
 1.677710081600002E-04  1.705906231399996E-04  1.734576255250000E-04  1.763728116999999E-04  1.793369914499998E-04  1.823509881500006E-04
 1.854156391000008E-04  1.885317955999995E-04  1.917003232499992E-04  1.949221022500003E-04  1.981980274500007E-04  2.015290090000002E-04
 2.049159720999994E-04  2.083598575999997E-04  2.118616222500005E-04  2.154222386999997E-04  2.190426959999998E-04  2.227239998499999E-04
 2.264671729999999E-04  2.302732551500005E-04  2.341433035500003E-04  2.380783932999994E-04  2.420796174000001E-04  2.461480874500002E-04
 2.502849335499994E-04  2.544913048000003E-04  2.587683697500001E-04  2.631173164499992E-04  2.675393530000006E-04  2.720357078000012E-04
 2.766076298000002E-04  2.812563889499995E-04  2.859832767499997E-04  2.907896061999996E-04  2.956767124000000E-04  3.006459529500006E-04
 3.056987080999989E-04  3.108363816000000E-04  3.160604005500011E-04  3.213722160499994E-04  3.267733036999999E-04  3.322651637999996E-04
 3.378493219499991E-04  3.435273292500002E-04  3.493007630000003E-04  3.551712270499999E-04  3.611403520499996E-04  3.672097961000004E-04
 3.733812453000016E-04  3.796564138500002E-04  3.860370449499991E-04  3.925249110999993E-04  3.991218143999994E-04  4.058295874999999E-04
 4.126500936500015E-04  4.195852274500016E-04  4.266369153999999E-04  4.338071163499987E-04  4.410978220499989E-04  4.485110578000013E-04
 4.560488828500003E-04  4.637133909999990E-04  4.715067114499996E-04  4.794310090500010E-04  4.874884850000014E-04  4.956813775499995E-04
 5.040119624999985E-04  5.124825540500002E-04  5.210955052000008E-04  5.298532084499988E-04  5.387580964999993E-04  5.478126430500004E-04
 5.570193633500017E-04  5.663808148000000E-04  5.758995978999981E-04  5.855783567999991E-04  5.954197801000018E-04  6.054266016499998E-04
 6.156016011999998E-04  6.259476050500014E-04  6.364674873000006E-04  6.471641701999986E-04  6.580406250500000E-04  6.690998732000013E-04
 6.803449866999989E-04  6.917790893499996E-04  7.034053572999993E-04  7.152270201000004E-04  7.272473617000001E-04  7.394697211500004E-04
 7.518974935999991E-04  7.645341312999994E-04  7.773831445000018E-04  7.904481024000008E-04  8.037326343999993E-04  8.172404306499986E-04
 8.309752432999994E-04  8.449408877500009E-04  8.591412434500005E-04  8.735802550500008E-04  8.882619334499992E-04  9.031903570000006E-04
 9.183696725500005E-04  9.338040966499969E-04  9.494979168000010E-04  9.654554925000031E-04  9.816812564999999E-04  9.981797160499989E-04
 1.014955454099999E-03  1.032013130799998E-03  1.049357484450002E-03  1.066993333000005E-03  1.084925575500002E-03  1.103159193199997E-03
 1.121699251049997E-03  1.140550899200003E-03  1.159719374450002E-03  1.179210001450000E-03  1.199028194349999E-03  1.219179458299996E-03
 1.239669391049997E-03  1.260503684399998E-03  1.281688125799998E-03  1.303228599900001E-03  1.325131090300004E-03  1.347401681249999E-03
 1.370046559050001E-03  1.393072014150003E-03  1.416484442649996E-03  1.440290348200000E-03  1.464496343650000E-03  1.489109153049999E-03
 1.514135613450006E-03  1.539582676800003E-03  1.565457411949994E-03  1.591767006399999E-03  1.618518768650004E-03  1.645720129699997E-03
 1.673378645749998E-03  1.701502000500003E-03  1.730098005500003E-03  1.759174603999998E-03  1.788739873499999E-03  1.818802026499998E-03
 1.849369414500000E-03  1.880450528000004E-03  1.912054000499999E-03  1.944188611999999E-03  1.976863288000001E-03  2.010087105499998E-03
 2.043869294000002E-03  2.078219236500006E-03  2.113146475499997E-03  2.148660712999989E-03  2.184771815000000E-03  2.221489812000002E-03
 2.258824903500004E-03  2.296787461499999E-03  2.335388030499999E-03  2.374637333000001E-03  2.414546272499998E-03  2.455125935000010E-03
 2.496387592499996E-03  2.538342707499988E-03  2.581002933499998E-03  2.624380121500000E-03  2.668486321000002E-03  2.713333783499999E-03
 2.758934967500001E-03  2.805302540000013E-03  2.852449381500005E-03  2.900388588499989E-03  2.949133477000002E-03  2.998697588500007E-03
 3.049094690999996E-03  3.100338783999998E-03  3.152444101999996E-03  3.205425118499999E-03  3.259296552499999E-03  3.314073367500003E-03
 3.369770778999998E-03  3.426404260000002E-03  3.483989542000007E-03  3.542542621500000E-03  3.602079763000005E-03  3.662617505499996E-03
 3.724172665500000E-03  3.786762341999997E-03  3.850403921000001E-03  3.915115081000009E-03  3.980913798999994E-03  4.047818351499990E-03
 4.115847323499996E-03  4.185019613499999E-03  4.255354436499992E-03  4.326871329000004E-03  4.399590157500022E-03  4.473531123499991E-03
 4.548714765499978E-03  4.625161968500019E-03  4.702893969000005E-03  4.781932358999985E-03  4.862299094000017E-03  4.944016498500015E-03
 5.027107273500003E-03  5.111594499499994E-03  5.197501644999991E-03  5.284852574999999E-03  5.373671553499992E-03  5.463983252999988E-03
 5.555812761000006E-03  5.649185585500011E-03  5.744127664999987E-03  5.840665372499998E-03  5.938825524000019E-03  6.038635388000008E-03
 6.140122689499983E-03  6.243315619999995E-03  6.348242845000018E-03  6.454933511500005E-03  6.563417256999993E-03  6.673724215999988E-03
 6.785885029999994E-03  6.899930855500003E-03  7.015893373000015E-03  7.133804795000004E-03  7.253697875499981E-03  7.375605918500006E-03
 7.499562788500003E-03  7.625602918500007E-03  7.753761320500013E-03  7.884073594999985E-03  8.016575940499981E-03  8.151305164499995E-03
 8.288298691999985E-03  8.427594578000019E-03  8.569231517000009E-03  8.713248853000011E-03  8.859686592000038E-03  9.008585412000003E-03
 9.159986674499965E-03  9.313932436999961E-03  9.470465463000011E-03  9.629629234500003E-03  9.791467964499978E-03  9.956026610000002E-03
 1.012335088300004E-02  1.029348726250001E-02  1.046648300999997E-02  1.064238618149999E-02  1.082124564000003E-02  1.100311106950003E-02
 1.118803298900001E-02  1.137606276799996E-02  1.156725263749997E-02  1.176165570700000E-02  1.195932597850002E-02  1.216031836200004E-02
 1.236468868999996E-02  1.257249373350000E-02  1.278379121700002E-02  1.299863983549998E-02  1.321709927150000E-02  1.343923020850002E-02
 1.366509435149998E-02  1.389475444149996E-02  1.412827427550001E-02  1.436571872100001E-02  1.460715373600002E-02  1.485264638750000E-02
 1.510226486999999E-02  1.535607852300003E-02  1.561415785199999E-02  1.587657454749997E-02  1.614340150450000E-02  1.641471284250007E-02
 1.669058392899997E-02  1.697109139999997E-02  1.725631317000009E-02  1.754632846999993E-02  1.784121786499993E-02  1.814106326500009E-02
 1.844594796499999E-02  1.875595665999996E-02  1.907117546500003E-02  1.939169194500001E-02  1.971759512500004E-02  2.004897553999996E-02
 2.038592524999994E-02  2.072853784500006E-02  2.107690849999999E-02  2.143113398499996E-02  2.179131270500001E-02  2.215754470999998E-02
 2.252993172000006E-02  2.290857720000006E-02  2.329358632000000E-02  2.368506601999998E-02  2.408312506999999E-02  2.448787402499997E-02
 2.489942532500000E-02  2.531789329500000E-02  2.574339417499993E-02  2.617604616500002E-02  2.661596944000000E-02  2.706328621999998E-02
 2.751812075000004E-02  2.798059937499997E-02  2.845085057499996E-02  2.892900497000006E-02  2.941519538500004E-02  2.990955687499997E-02