<UPF version="2.0.1">
<PP_INFO>
  Converted from PSP8 format: POEPP_LDA_revHC.psp8
  Element: Li, Z=3.0, Z_valence=1.0
  XC functional: LDA
</PP_INFO>
<PP_HEADER element="Li" z_valence="1.00000000" pseudo_type="NC" relativistic="scalar" is_ultrasoft="false" is_paw="false" core_correction="false" functional="LDA" mesh_size="433" number_of_wfc="0" number_of_proj="0" has_so="false"/>
<PP_MESH dx="2.43998868e-02" mesh="433" xmin="-5.07517382e+00" rmax="7.880409825827900E+01" zmesh="3.00000000">
  <PP_R type="real" size="433" columns="6">
     2.083333333333300E-03  2.134791666666700E-03  2.187521020833300E-03  2.241552790047900E-03  2.296919143962100E-03  2.353653046818000E-03
 2.411788277074400E-03  2.471359447518100E-03  2.532402025871800E-03  2.594952355910800E-03  2.659047679101800E-03  2.724726156775600E-03
 2.792026892848000E-03  2.860989957101300E-03  2.931656409041800E-03  3.004068322345100E-03  3.078268809907000E-03  3.154302049511700E-03
 3.232213310134600E-03  3.312048978895000E-03  3.393856588673700E-03  3.477684846413900E-03  3.563583662120300E-03  3.651604178574700E-03
 3.741798801785500E-03  3.834221232189600E-03  3.928926496624700E-03  4.025970981091300E-03  4.125412464324300E-03  4.227310152193100E-03
 4.331724712952300E-03  4.438718313362200E-03  4.548354655702200E-03  4.660699015698100E-03  4.775818281385800E-03  4.893780992936000E-03
 5.014657383461600E-03  5.138519420833100E-03  5.265440850527600E-03  5.395497239535700E-03  5.528766021352200E-03  5.665326542079600E-03
 5.805260107669000E-03  5.948650032328400E-03  6.095581688126900E-03  6.246142555823600E-03  6.400422276952500E-03  6.558512707193200E-03
 6.720507971060900E-03  6.886504517946100E-03  7.056601179539300E-03  7.230899228674000E-03  7.409502439622200E-03  7.592517149880900E-03
 7.780052323482900E-03  7.972219615872999E-03  8.169133440385000E-03  8.370911036362500E-03  8.577672538960700E-03  8.789541050673000E-03
 9.006642714624700E-03  9.229106789675900E-03  9.457065727380899E-03  9.690655250847200E-03  9.930014435543101E-03  1.017528579210100E-02
 1.042661535116600E-02  1.068415275034000E-02  1.094805132327300E-02  1.121846819095800E-02  1.149556435527500E-02  1.177950479485000E-02
 1.207045856328300E-02  1.236859888979600E-02  1.267410328237400E-02  1.298715363344800E-02  1.330793632819500E-02  1.363664235550100E-02
 1.397346742168200E-02  1.431861206699700E-02  1.467228178505200E-02  1.503468714514300E-02  1.540604391762800E-02  1.578657320239300E-02
 1.617650156049300E-02  1.657606114903700E-02  1.698548985941800E-02  1.740503145894600E-02  1.783493573598100E-02  1.827545864866000E-02
 1.872686247728200E-02  1.918941598047100E-02  1.966339455518900E-02  2.014908040070200E-02  2.064676268659900E-02  2.115673772495800E-02
 2.167930914676500E-02  2.221478808269000E-02  2.276349334833200E-02  2.332575163403600E-02  2.390189769939700E-02  2.449227457257200E-02
 2.509723375451400E-02  2.571713542825100E-02  2.635234867332800E-02  2.700325168556000E-02  2.767023200219300E-02  2.835368673264700E-02
 2.905402279494400E-02  2.977165715797900E-02  3.050701708978100E-02  3.126054041189800E-02  3.203267576007200E-02  3.282388285134600E-02
 3.363463275777400E-02  3.446540818689100E-02  3.531670376910700E-02  3.618902635220400E-02  3.708289530310400E-02  3.799884281709100E-02
 3.893741423467300E-02  3.989916836626900E-02  4.088467782491600E-02  4.189452936719100E-02  4.292932424256100E-02  4.398967855135200E-02
 4.507622361157100E-02  4.618960633477600E-02  4.733048961124500E-02  4.849955270464300E-02  4.969749165644800E-02  5.092501970036200E-02
 5.218286768696100E-02  5.347178451882900E-02  5.479253759644400E-02  5.614591327507600E-02  5.753271733297100E-02  5.895377545109500E-02
 6.040993370473700E-02  6.190205906724400E-02  6.343103992620500E-02  6.499778661238199E-02  6.660323194170800E-02  6.824833177066800E-02
 6.993406556540400E-02  7.166143698486900E-02  7.343147447839500E-02  7.524523189801199E-02  7.710378912589300E-02  7.900825271730200E-02
 8.095975655942000E-02  8.295946254643700E-02  8.500856127133399E-02  8.710827273473599E-02  8.925984707128400E-02  9.146456529394500E-02
 9.372374005670500E-02  9.603871643610599E-02  9.841087273207801E-02  1.008416212885600E-01  1.033324093343900E-01  1.058847198449500E-01
 1.085000724251200E-01  1.111800242140200E-01  1.139261708121000E-01  1.167401472311600E-01  1.196236288677700E-01  1.225783325008100E-01
 1.256060173135800E-01  1.287084859412200E-01  1.318875855439700E-01  1.351452089069100E-01  1.384832955669100E-01  1.419038329674100E-01
 1.454088576417000E-01  1.490004564254500E-01  1.526807676991600E-01  1.564519826613300E-01  1.603163466330700E-01  1.642761603949000E-01
 1.683337815566600E-01  1.724916259611100E-01  1.767521691223500E-01  1.811179476996700E-01  1.855915610078500E-01  1.901756725647400E-01
 1.948730116770900E-01  1.996863750655200E-01  2.046186285296400E-01  2.096727086543200E-01  2.148516245580800E-01  2.201584596846600E-01
 2.255963736388700E-01  2.311686040677600E-01  2.368784685882300E-01  2.427293667623600E-01  2.487247821213900E-01  2.548682842397900E-01
 2.611635308605100E-01  2.676142700727600E-01  2.742243425435600E-01  2.809976838043900E-01  2.879383265943600E-01  2.950504032612400E-01
 3.023381482217900E-01  3.098059004828700E-01  3.174581062247900E-01  3.252993214485500E-01  3.333342146883200E-01  3.415675697911300E-01
 3.500042887649700E-01  3.586493946974600E-01  3.675080347464900E-01  3.765854832047300E-01  3.858871446398800E-01  3.954185571124900E-01
 4.051853954731700E-01  4.151934747413500E-01  4.254487535674700E-01  4.359573377805800E-01  4.467254840237600E-01  4.577596034791500E-01
 4.690662656850900E-01  4.806522024475100E-01  4.925243118479600E-01  5.046896623506000E-01  5.171554970106600E-01  5.299292377868300E-01
 5.430184899601600E-01  5.564310466621800E-01  5.701748935147301E-01  5.842582133845500E-01  5.986893912551500E-01  6.134770192191500E-01
 6.286299015938600E-01  6.441570601632300E-01  6.600677395492600E-01  6.763714127161300E-01  6.930777866102200E-01  7.101968079394900E-01
 7.277386690955900E-01  7.457138142222600E-01  7.641329454335500E-01  7.830070291857500E-01  8.023473028066400E-01  8.221652811859700E-01
 8.424727636312600E-01  8.632818408929500E-01  8.846049023630100E-01  9.064546434513699E-01  9.288440731446200E-01  9.517865217512900E-01
 9.752956488385500E-01  9.993854513648600E-01  1.024070272013600E+00  1.049364807732300E+00  1.075284118483300E+00  1.101843636209800E+00
 1.129059174024200E+00  1.156946935622600E+00  1.185523524932500E+00  1.214805955998300E+00  1.244811663111500E+00  1.275558511190300E+00
 1.307064806416700E+00  1.339349307135200E+00  1.372431235021500E+00  1.406330286526500E+00  1.441066644603700E+00  1.476660990725400E+00
 1.513134517196300E+00  1.550508939771100E+00  1.588806510583400E+00  1.628050031394800E+00  1.668262867170300E+00  1.709468959989400E+00
 1.751692843301100E+00  1.794959656530700E+00  1.839295160047000E+00  1.884725750500200E+00  1.931278476537500E+00  1.978981054908000E+00
 2.027861886964200E+00  2.077950075572200E+00  2.129275442438900E+00  2.181868545867100E+00  2.235760698950000E+00  2.290983988214100E+00
 2.347571292723000E+00  2.405556303653200E+00  2.464973544353500E+00  2.525858390899000E+00  2.588247093154200E+00  2.652176796355100E+00
 2.717685563225100E+00  2.784812396636700E+00  2.853597262833700E+00  2.924081115225700E+00  2.996305918771700E+00  3.070314674965400E+00
 3.146151447437000E+00  3.223861388188700E+00  3.303490764477000E+00  3.385086986359600E+00  3.468698634922600E+00  3.554375491205200E+00
 3.642168565838000E+00  3.732130129414200E+00  3.824313743610700E+00  3.918774293077900E+00  4.015568018116900E+00  4.114752548164400E+00
 4.216386936104100E+00  4.320531693425900E+00  4.427248826253500E+00  4.536601872261900E+00  4.648655938506800E+00  4.763477740187900E+00
 4.881135640370600E+00  5.001699690687700E+00  5.125241673047700E+00  5.251835142372000E+00  5.381555470388600E+00  5.514479890507200E+00
 5.650687543802700E+00  5.790259526134600E+00  5.933278936430200E+00  6.079830926160000E+00  6.230002750036100E+00  6.383883817962000E+00
 6.541565748265700E+00  6.703142422247900E+00  6.868710040077400E+00  7.038367178067300E+00  7.212214847365500E+00  7.390356554095500E+00
 7.572898360981600E+00  7.759948950497900E+00  7.951619689575200E+00  8.148024695907701E+00  8.349280905896601E+00  8.555508144272199E+00
 8.766829195435800E+00  8.983369876563000E+00  9.205259112514099E+00  9.432629012593200E+00  9.665614949204301E+00  9.904355638449600E+00
 1.014899322271900E+01  1.039967335532100E+01  1.065654528719700E+01  1.091976195579100E+01  1.118948007609900E+01  1.146586023397800E+01
 1.174906698175800E+01  1.203926893620700E+01  1.233663887893100E+01  1.264135385924100E+01  1.295359529956400E+01  1.327354910346300E+01
 1.360140576631900E+01  1.393736048874700E+01  1.428161329281900E+01  1.463436914115200E+01  1.499583805893800E+01  1.536623525899400E+01
 1.574578126989100E+01  1.613470206725700E+01  1.653322920831900E+01  1.694159996976400E+01  1.736005748901700E+01  1.778885090899600E+01
 1.822823552644800E+01  1.867847294395200E+01  1.913983122566700E+01  1.961258505694100E+01  2.009701590784800E+01  2.059341220077100E+01
 2.110206948213000E+01  2.162329059833900E+01  2.215738587611800E+01  2.270467330725800E+01  2.326547873794700E+01  2.384013606277500E+01
 2.442898742352500E+01  2.503238341288600E+01  2.565068328318500E+01  2.628425516027900E+01  2.693347626273800E+01  2.759873312642800E+01
 2.828042183465100E+01  2.897894825396600E+01  2.969472827583900E+01  3.042818806425300E+01  3.117976430944000E+01  3.194990448788300E+01
 3.273906712873400E+01  3.354772208681300E+01  3.437635082235800E+01  3.522544668767000E+01  3.609551522085500E+01  3.698707444681000E+01
 3.790065518564700E+01  3.883680136873200E+01  3.979607036254000E+01  4.077903330049400E+01  4.178627542301700E+01  4.281839642596500E+01
 4.387601081768600E+01  4.495974828488300E+01  4.607025406752000E+01  4.720818934298800E+01  4.837423161975900E+01  4.956907514076800E+01
 5.079343129674400E+01  5.204802904977400E+01  5.333361536730300E+01  5.465095566687600E+01  5.600083427184800E+01  5.738405487836200E+01
 5.880144103385800E+01  6.025383662739400E+01  6.174210639209100E+01  6.326713641997500E+01  6.482983468954900E+01  6.643113160638100E+01
 6.807198055705800E+01  6.975335847681799E+01  7.147626643119500E+01  7.324173021204599E+01  7.505080094828300E+01  7.690455573170600E+01
 7.880409825827900E+01
  </PP_R>
  <PP_RAB type="real" size="433" columns="6">
     5.145833333340026E-05  5.209384375000001E-05  5.338056169059986E-05  5.469906156440013E-05  5.605012838504997E-05  5.743456655614996E-05
 5.885320035005012E-05  6.030687439869992E-05  6.179645419635005E-05  6.332282661499996E-05  6.488690043239998E-05  6.648960687310004E-05
 6.813190016285000E-05  6.981475809690000E-05  7.153918262190005E-05  7.330620043259997E-05  7.511686358329999E-05  7.697225011380013E-05
 7.887346469164988E-05  8.082163926954986E-05  8.281793375944997E-05  8.486353672330004E-05  8.695966608039999E-05  8.910756983260010E-05
 9.130852680745011E-05  9.356384741959984E-05  9.587487445084975E-05  9.824298384979993E-05  1.006695855509001E-04  1.031561243140001E-04
 1.057040805845502E-04  1.083149713749501E-04  1.109903511679498E-04  1.137318128418001E-04  1.165409886189502E-04  1.194195510378997E-04
 1.223692139485501E-04  1.253917335330003E-04  1.284889093512999E-04  1.316625854122996E-04  1.349146512719499E-04  1.382470431584002E-04
 1.416617451244001E-04  1.451607902289501E-04  1.487462617476001E-04  1.524202944128000E-04  1.561850756847997E-04  1.600428470541998E-04
 1.639959053764501E-04  1.680466042392002E-04  1.721973553639499E-04  1.764506300414499E-04  1.808089606034503E-04  1.852749419303502E-04
 1.898512329960495E-04  1.945405584510497E-04  1.993457102447502E-04  2.042695492878504E-04  2.093150071552502E-04  2.144850878319999E-04
 2.197828695014500E-04  2.252115063780995E-04  2.307742305856500E-04  2.364743540811008E-04  2.423152706269001E-04  2.483004578114493E-04
 2.544334791195002E-04  2.607179860535007E-04  2.671577203089996E-04  2.737565160009997E-04  2.805183019459999E-04  2.874471040039996E-04
 2.945470474730004E-04  3.018223595455003E-04  3.092773718259998E-04  3.169165229105000E-04  3.247443610264996E-04  3.327655467434999E-04
 3.409848557480001E-04  3.494071816849999E-04  3.580375390730001E-04  3.668810662880006E-04  3.759430286250001E-04  3.852288214324989E-04
 3.947439733220006E-04  4.044941494625014E-04  4.144851549544998E-04  4.247229382815000E-04  4.352135948569990E-04  4.459633706504987E-04
 4.569786659055011E-04  4.682660389535003E-04  4.798322101154991E-04  4.916840657049996E-04  5.038286621280013E-04  5.162732300830006E-04
 5.290251788659991E-04  5.420921007835006E-04  5.554817756729998E-04  5.692021755324995E-04  5.832614692680010E-04  5.976680275584997E-04
 6.124304278394988E-04  6.275574594069994E-04  6.430581286545004E-04  6.589416644325000E-04  6.752175235435007E-04  6.918953963754998E-04
 7.089852126659999E-04  7.264971474185006E-04  7.444416269594984E-04  7.628293351455012E-04  7.816712197240006E-04  8.009784988509995E-04
 8.207626677724997E-04  8.410355056664987E-04  8.618090826565013E-04  8.830957669984998E-04  9.049082324434979E-04  9.272594657845010E-04
 9.501627745890015E-04  9.736317951214990E-04  9.976805004609998E-04  1.022323208822500E-03  1.047574592080502E-03  1.073449684505002E-03
 1.099963891711998E-03  1.127132999837001E-03  1.154973184933499E-03  1.183501022601497E-03  1.212733497859501E-03  1.242688015256503E-03
 1.273382409233501E-03  1.304834954741499E-03  1.337064378123500E-03  1.370089868263501E-03  1.403931088009500E-03  1.438608185882997E-03
 1.474141808074498E-03  1.510553110734000E-03  1.547863772568998E-03  1.586096007751503E-03  1.625272579143001E-03  1.665416811848001E-03
 1.706552607100502E-03  1.748704456495498E-03  1.791897456571497E-03  1.836157323748998E-03  1.881510409645001E-03  1.927983716763504E-03
 1.975604914567504E-03  2.024402355956995E-03  2.074405094149495E-03  2.125642899975001E-03  2.178146279604505E-03  2.231946492710503E-03
 2.287075571080495E-03  2.343566337686502E-03  2.401452426227003E-03  2.460768301155998E-03  2.521549278195000E-03  2.583831545364998E-03
 2.647652184534999E-03  2.713049193490004E-03  2.780061508569999E-03  2.848729027834999E-03  2.919092634825003E-03  2.991194222905003E-03
 3.065076720205000E-03  3.140784115195000E-03  3.218361482845003E-03  3.297855011469994E-03  3.379312030249992E-03  3.462781037395002E-03
 3.548311729020009E-03  3.635955028730001E-03  3.725763117939998E-03  3.817789466955004E-03  3.912088866784999E-03  4.008717461795000E-03
 4.107732783105000E-03  4.209193782844997E-03  4.313160869279992E-03  4.419695942749990E-03  4.528862432535002E-03  4.640725334620011E-03
 4.755351250390005E-03  4.872808426274994E-03  4.993166794399997E-03  5.116498014219997E-03  5.242875515169998E-03  5.372374540395006E-03
 5.505072191549998E-03  5.641047474680000E-03  5.780381347300009E-03  5.923156766579993E-03  6.069458738715006E-03  6.219374369559993E-03
 6.372992916484993E-03  6.530405841525005E-03  6.691706865814995E-03  6.856992025399994E-03  7.026359728424997E-03  7.199910813715016E-03
 7.377748610814999E-03  7.559979001499989E-03  7.746710482840008E-03  7.938054231764996E-03  8.134124171290003E-03  8.335037038324999E-03
 8.540912453164989E-03  8.751872990760023E-03  8.968044253635010E-03  9.189554946694989E-03  9.416536953880006E-03  9.649125416645005E-03
 9.887458814429984E-03  1.013167904714998E-02  1.038193151961500E-02  1.063836522814501E-02  1.090113284928501E-02  1.117039083066501E-02
 1.144629948417999E-02  1.172902308143497E-02  1.201872995154499E-02  1.231559258135001E-02  1.261978771811501E-02  1.293149647475000E-02
 1.325090443767502E-02  1.357820177728503E-02  1.391358336118498E-02  1.425724887020996E-02  1.460940291730001E-02  1.497025516935502E-02
 1.534002047204003E-02  1.571891897770000E-02  1.610717627644997E-02  1.650502353048000E-02  1.691269761168002E-02  1.733044124268501E-02
 1.775850314138500E-02  1.819713816898000E-02  1.864660748174501E-02  1.910717868654499E-02  1.957912600010997E-02  2.006273041230999E-02
 2.055827985349001E-02  2.106606936587502E-02  2.158640127920997E-02  2.211958539080500E-02  2.266593914996001E-02  2.322578784696500E-02
 2.379946480678502E-02  2.438731158752494E-02  2.498967818371994E-02  2.560692323485003E-02  2.623941423875009E-02  2.688752777045000E-02
 2.755164970640001E-02  2.823217545415002E-02  2.892951018784995E-02  2.964406908950001E-02  3.037627759600003E-02  3.112657165260002E-02
 3.189539797245000E-02  3.268321430239995E-02  3.349048969564994E-02  3.431770479109997E-02  3.516535209945004E-02  3.603393629630003E-02
 3.692397452285001E-02  3.783599669354998E-02  3.877054581185002E-02  3.972817829344999E-02  4.070946429729994E-02  4.171498806540008E-02
 4.274534827065002E-02  4.380115837294996E-02  4.488304698474999E-02  4.599165824524998E-02  4.712765220390003E-02  4.829170521335002E-02
 4.948451033210000E-02  5.070677773735000E-02  5.195923514745004E-02  5.324262825555004E-02  5.455772117350000E-02  5.590529688649992E-02
 5.728615771955003E-02  5.870112581525011E-02  6.015104362290002E-02  6.163677440034987E-02  6.315920272804987E-02  6.471923503544996E-02
 6.631780014080002E-02  6.795584980430003E-02  6.963435929449990E-02  7.135432796900010E-02  7.311677986984999E-02  7.492276433264999E-02
 7.677335661165019E-02  7.866965851999996E-02  8.061279908544994E-02  8.260393522280007E-02  8.464425242279994E-02  8.673496545769988E-02
 8.887731910450003E-02  9.107258888635017E-02  9.332208183185009E-02  9.562713725309990E-02  9.798912754325007E-02  1.004094589936000E-01
 1.028895726307497E-01  1.054309450747000E-01  1.080350894180002E-01  1.107035561266501E-01  1.134379339630001E-01  1.162398509318998E-01
 1.191109752499000E-01  1.220530163385503E-01  1.250677258421500E-01  1.281568986704498E-01  1.313223740675999E-01  1.345660367070503E-01
 1.378898178136998E-01  1.412956963137497E-01  1.447857000127000E-01  1.483619068029500E-01  1.520264459010003E-01  1.557814991148003E-01
 1.596293021429500E-01  1.635721459058499E-01  1.676123779096996E-01  1.717524036440499E-01  1.759946880141001E-01  1.803417568080499E-01
 1.847961982011999E-01  1.893606642968000E-01  1.940378727049006E-01  1.988306081607005E-01  2.037417241822492E-01  2.087741447695999E-01
 2.139308661454002E-01  2.192149585391494E-01  2.246295680151000E-01  2.301779183451007E-01  2.358633129282000E-01  2.416891367573495E-01
 2.476588584356998E-01  2.537760322390001E-01  2.600443002350001E-01  2.664673944510003E-01  2.730491390935006E-01  2.797934528294999E-01
 2.867043511144995E-01  2.937859485864998E-01  3.010424615170004E-01  3.084782103165002E-01  3.160976221110001E-01  3.239052333774994E-01
 3.319056926419997E-01  3.401037632500001E-01  3.485043262024998E-01  3.571123830595004E-01  3.659330589209997E-01  3.749716054764995E-01
 3.842334041314999E-01  3.937239692140002E-01  4.034489512535000E-01  4.134141403489995E-01  4.236254696160007E-01  4.340890187155004E-01
 4.448110174779991E-01  4.557978496094997E-01  4.670560564945010E-01  4.785923410905006E-01  4.904135719149991E-01  5.025267871409991E-01
 5.149391987840009E-01  5.276581969940004E-01  5.406913544594989E-01  5.540464309145001E-01  5.677313777585002E-01  5.817543427890008E-01
 5.961236750554999E-01  6.108479298299994E-01  6.259358736965002E-01  6.413964897765005E-01  6.572389830745013E-01  6.734727859565002E-01
 6.901075637689988E-01  7.071532205939999E-01  7.246199051435003E-01  7.425180168004992E-01  7.608582118150000E-01  7.796514096470002E-01
 7.989087994650017E-01  8.186418468119996E-01  8.388623004284987E-01  8.595821992485000E-01  8.808138795699989E-01  9.025699823959989E-01
 9.248634609609994E-01  9.477075884465016E-01  9.711159658810011E-01  9.951025302385013E-01  1.019681562735499E+00  1.044867697334499E+00
 1.070675929459000E+00  1.097121624916998E+00  1.124220529052501E+00  1.151988776119502E+00  1.180442898890000E+00  1.209599838492498E+00
 1.239476954503001E+00  1.270092035279500E+00  1.301463308551000E+00  1.333609452272501E+00  1.366549605743000E+00  1.400303381004999E+00
 1.434890874516000E+00  1.470332679116503E+00  1.506649896290501E+00  1.543864148729000E+00  1.581997593202999E+00  1.621072933754498E+00
 1.661113435218496E+00  1.702142937068501E+00  1.744185867614000E+00  1.787267258543999E+00  1.831412759830002E+00  1.876648654998000E+00
 1.899542526573001E+00
  </PP_RAB>
</PP_MESH>
<PP_LOCAL type="real" size="433" columns="6">
   1.215729629695920E+00  1.215725952273440E+00  1.215722094354980E+00  1.215718046832120E+00  1.215713800142760E+00  1.215709344252220E+00
 1.215704668622240E+00  1.215699762190040E+00  1.215694613341420E+00  1.215689209883160E+00  1.215683539014140E+00  1.215677587294880E+00
 1.215671340615520E+00  1.215664784162320E+00  1.215657902382420E+00  1.215650678946960E+00  1.215643096712080E+00  1.215635137678300E+00
 1.215626782947620E+00  1.215618012678660E+00  1.215608806039400E+00  1.215599141157720E+00  1.215588995069400E+00  1.215578343663380E+00
 1.215567161624580E+00  1.215555422373620E+00  1.215543098003620E+00  1.215530159214040E+00  1.215516575240640E+00  1.215502313782700E+00
 1.215487340926080E+00  1.215471621062560E+00  1.215455116805360E+00  1.215437788900120E+00  1.215419596131700E+00  1.215400495226220E+00
 1.215380440748220E+00  1.215359384992800E+00  1.215337277872100E+00  1.215314066796600E+00  1.215289696549880E+00  1.215264109157920E+00
 1.215237243751020E+00  1.215209036419560E+00  1.215179420062260E+00  1.215148324226780E+00  1.215115674942840E+00  1.215081394546400E+00
 1.215045401495700E+00  1.215007610177720E+00  1.214967930705300E+00  1.214926268704020E+00  1.214882525088540E+00  1.214836595827900E+00
 1.214788371699040E+00  1.214737738028200E+00  1.214684574419420E+00  1.214628754469680E+00  1.214570145469860E+00  1.214508608090780E+00
 1.214443996053960E+00  1.214376155785840E+00  1.214304926055020E+00  1.214230137591640E+00  1.214151612687700E+00  1.214069164777940E+00
 1.213982597999980E+00  1.213891706732520E+00  1.213796275111260E+00  1.213696076520520E+00  1.213590873060160E+00  1.213480414986260E+00
 1.213364440124180E+00  1.213242673253100E+00  1.213114825460080E+00  1.212980593462860E+00  1.212839658899300E+00  1.212691687582120E+00
 1.212536328717460E+00  1.212373214085300E+00  1.212201957179900E+00  1.212022152308680E+00  1.211833373647280E+00  1.211635174248800E+00
 1.211427085005340E+00  1.211208613559260E+00  1.210979243162160E+00  1.210738431478700E+00  1.210485609333520E+00  1.210220179397640E+00
 1.209941514812700E+00  1.209648957749060E+00  1.209341817895900E+00  1.209019370879520E+00  1.208680856606860E+00  1.208325477531080E+00
 1.207952396835820E+00  1.207560736534140E+00  1.207149575479240E+00  1.206717947282280E+00  1.206264838134380E+00  1.205789184527800E+00
 1.205289870872940E+00  1.204765727006280E+00  1.204215525585460E+00  1.203637979366180E+00  1.203031738357360E+00  1.202395386848800E+00
 1.201727440307180E+00  1.201026342135140E+00  1.200290460288880E+00  1.199518083748420E+00  1.198707418836360E+00  1.197856585379260E+00
 1.196963612706820E+00  1.196026435483440E+00  1.195042889367420E+00  1.194010706492200E+00  1.192927510764920E+00  1.191790812977620E+00
 1.190598005725680E+00  1.189346358129960E+00  1.188033010357440E+00  1.186654967937020E+00  1.185209095866940E+00  1.183692112510240E+00
 1.182100583276380E+00  1.180430914086440E+00  1.178679344621060E+00  1.176841941350740E+00  1.174914590348720E+00  1.172892989888300E+00
 1.170772642827260E+00  1.168548848783780E+00  1.166216696108940E+00  1.163771053664120E+00  1.161206562411660E+00  1.158517626830640E+00
 1.155698406171580E+00  1.152742805566200E+00  1.149644467011420E+00  1.146396760250160E+00  1.142992773574480E+00  1.139425304580900E+00
 1.135686850911340E+00  1.131769601018060E+00  1.127665424995740E+00  1.123365865528820E+00  1.118862129008600E+00  1.114145076880060E+00
 1.109205217285400E+00  1.104032697078480E+00  1.098617294291580E+00  1.092948411144240E+00  1.087015067692660E+00  1.080805896226540E+00
 1.074309136530700E+00  1.067512632138160E+00  1.060403827712400E+00  1.052969767705960E+00  1.045197096456420E+00  1.037072059888740E+00
 1.028580509007800E+00  1.019707905374880E+00  1.010439328774080E+00  1.000759487286280E+00  9.906527299997600E-01  9.801030625970200E-01
 9.690941660677400E-01  9.576094188068600E-01  9.456319223649799E-01  9.331445311239600E-01  9.201298861774000E-01  9.065704536947200E-01
 8.924485680516800E-01  8.777464800036400E-01  8.624464101744400E-01  8.465306081218400E-01  8.299814172275600E-01  8.127813456402400E-01
 7.949131434765599E-01  7.763598864558600E-01  7.571050661086600E-01  7.371326866581800E-01  7.164273686262200E-01  6.949744591598200E-01
 6.727601490159399E-01  6.497715960712200E-01  6.259970551518800E-01  6.014260138987400E-01  5.760493342953400E-01  5.498593993991000E-01
 5.228502647196600E-01  4.950178135937400E-01  4.663599158071200E-01  4.368765886172800E-01  4.065701592383000E-01  3.754454277534600E-01
 3.435098293459000E-01  3.107735946547200E-01  2.772499070070000E-01  2.429550552224200E-01  2.079085806563400E-01  1.721334171301880E-01
 1.356560223998660E-01  9.850649984140800E-02  6.071870907625200E-02  2.233036432646600E-02 -1.661688061918200E-02 -5.607736184156000E-02
-9.600135001620801E-02 -1.363350111777440E-01 -1.770203841265020E-01 -2.179953749311600E-01 -2.591937688391000E-01 -3.005452597718200E-01
-3.419754974748200E-01 -3.834061523109800E-01 -4.247549976517600E-01 -4.659360098339800E-01 -5.068594857348400E-01 -5.474321781691600E-01
-5.875574495604000E-01 -6.271354446718400E-01 -6.660632836320600E-01 -7.042352770445800E-01 -7.415431656487400E-01 -7.778763877959201E-01
-8.131223789218200E-01 -8.471669082336200E-01 -8.798944589678200E-01 -9.111886598131600E-01 -9.409327763941400E-01 -9.690102730560800E-01
-9.953054565347800E-01 -1.019704214382200E+00 -1.042094862188200E+00 -1.062369114599280E+00 -1.080423195790720E+00 -1.096159105267080E+00
-1.109486054501620E+00 -1.120322088797420E+00 -1.128595906655400E+00 -1.134248885631500E+00 -1.137237318899160E+00 -1.137534860195500E+00
-1.135135166264100E+00 -1.130054714952220E+00 -1.122335763553580E+00 -1.112049395540800E+00 -1.099298584374800E+00 -1.084221180621080E+00
-1.066992703333100E+00 -1.047828789074100E+00 -1.026987122875840E+00 -1.004768646151480E+00 -9.815178089030600E-01 -9.576216098380200E-01
-9.335071512059600E-01 -9.096374287471199E-01 -8.865050850135000E-01 -8.646238805027200E-01 -8.445176854159600E-01 -8.267068686628800E-01
-8.116920621475000E-01 -7.999354081137000E-01 -7.918395544683000E-01 -7.877248453790200E-01 -7.878053596891600E-01 -7.921646773619000E-01
-8.007325088348800E-01 -8.132636168870599E-01 -8.293208188767200E-01 -8.482643091197400E-01 -8.692501075326799E-01 -8.912410991809800E-01
-9.130347706305600E-01 -9.333121663157800E-01 -9.507337617081600E-01 -9.640666317310800E-01 -9.721612440287800E-01 -9.740420486239200E-01
-9.690562339941799E-01 -9.570530398998400E-01 -9.389228598037800E-01 -9.170408246094200E-01 -8.948609425005800E-01 -8.732304310556200E-01
-8.521334105638000E-01 -8.315548026207800E-01 -8.114802547287600E-01 -7.918960723886600E-01 -7.727891582345000E-01 -7.541469577329400E-01
-7.359574109540200E-01 -7.182089099122000E-01 -7.008902609784600E-01 -6.839906518739201E-01 -6.674996227708000E-01 -6.514070410490600E-01
-6.357030792815000E-01 -6.203781960499800E-01 -6.054231192262800E-01 -5.908288313828400E-01 -5.765865570323400E-01 -5.626877514264400E-01
-5.491240906757200E-01 -5.358874629829800E-01 -5.229699608089200E-01 -5.103638738163000E-01 -4.980616824607600E-01 -4.860560521183600E-01
-4.743398276576000E-01 -4.629060283805800E-01 -4.517478432711400E-01 -4.408586264999200E-01 -4.302318931462800E-01 -4.198613151051000E-01
-4.097407171528200E-01 -3.998640731534400E-01 -3.902255023883000E-01 -3.808192659980000E-01 -3.716397635267400E-01 -3.626815295615600E-01
-3.539392304609400E-01 -3.454076611676000E-01 -3.370817421020800E-01 -3.289565161335800E-01 -3.210271456255600E-01 -3.132889095535600E-01
-3.057372006932000E-01 -2.983675228764400E-01 -2.911754883142000E-01 -2.841568149836200E-01 -2.773073240786400E-01 -2.706229375217400E-01
-2.640996755359400E-01 -2.577336542753000E-01 -2.515210835125200E-01 -2.454582643822600E-01 -2.395415871789200E-01 -2.337675292075000E-01
-2.281326526861400E-01 -2.226336026994600E-01 -2.172671052009800E-01 -2.120299650638800E-01 -2.069190641786600E-01 -2.019313595966200E-01
-1.970638817181720E-01 -1.923137325248000E-01 -1.876780838536080E-01 -1.831541757134740E-01 -1.787393146418120E-01 -1.744308721009120E-01
-1.702262829129520E-01 -1.661230437327460E-01 -1.621187115572720E-01 -1.582109022711680E-01 -1.543972892272460E-01 -1.506756018612660E-01
-1.470436243400620E-01 -1.434991942422720E-01 -1.400402012708760E-01 -1.366645859967520E-01 -1.333703386325260E-01 -1.301554978359740E-01
-1.270181495422780E-01 -1.239564258244120E-01 -1.209685037810200E-01 -1.180526044510780E-01 -1.152069917547360E-01 -1.124299714596820E-01
-1.097198901724240E-01 -1.070751343538860E-01 -1.044941293587260E-01 -1.019753384978320E-01 -9.951726212338600E-02 -9.711843673601001E-02
-9.477743411341000E-02 -9.249286046004999E-02 -9.026335557729200E-02 -8.808759205357200E-02 -8.596427447406400E-02 -8.389213864942600E-02
-8.186995086310800E-02 -7.989650713683000E-02 -7.797063251374201E-02 -7.609118035888000E-02 -7.425703167647200E-02 -7.246709444371199E-02
-7.072030296058600E-02 -6.901561721536800E-02 -6.735202226541200E-02 -6.572852763287999E-02 -6.414416671502000E-02 -6.259799620866600E-02
-6.108909554861600E-02 -5.961656635953600E-02 -5.817953192108400E-02 -5.677713664593000E-02 -5.540854557034200E-02 -5.407294385707200E-02
-5.276953631021000E-02 -5.149754690173800E-02 -5.025621830949200E-02 -4.904481146627600E-02 -4.786260511981600E-02 -4.670889540335200E-02