#     DFTpy    
  CRYSTAL 
    
  PRIMVEC    
  4.65370876383607    0.0    0.0    
  -0.0    4.65370876383607    0.0    
  0.0    0.0    4.65370876383607    
  PRIMCOORD    
  12    1    
  Li    1.16342719095902    3.49028157287705    1.16342719095902    
  Li    3.49028157287705    1.16342719095902    3.49028157287705    
  Li    1.16342719095902    1.16342719095902    3.49028157287705    
  Li    3.49028157287705    3.49028157287705    1.16342719095902    
  Li    3.49028157287705    3.49028157287705    3.49028157287705    
  Li    1.16342719095902    1.16342719095902    1.16342719095902    
  Li    3.49028157287705    1.16342719095902    1.16342719095902    
  Li    1.16342719095902    3.49028157287705    3.49028157287705    
  O    0.0    0.0    0.0    
  O    -0.0    2.32685438191803    2.32685438191803    
  O    2.32685438191803    0.0    2.32685438191803    
  O    2.32685438191803    2.32685438191803    0.0    
  BEGIN_BLOCK_DATAGRID_3D    
  3d_datagrid_density    
  BEGIN_DATAGRID_3D#0    
  55    55    55    
  0.0    0.0    0.0    
  4.653708760853427    0.0    0.0    
  -0.0    4.653708760853427    0.0    
  0.0    0.0    4.653708760853427    
  6.770276585603442    6.866913002855051    6.909746681210164    6.448914051808307    5.360616393228776    
  3.98542957515462    2.756132958039378    1.8657884322424367    1.2694759386684393    0.8638700196518936    
  0.5963851644192394    0.4210254975461418    0.3015040361030806    0.21972482515039127    0.16235228617486716    
  0.12278345567456304    0.09420141147482003    0.07384269475540368    0.05899689460267168    0.048801530190948114    
  0.04118432480467152    0.0356869163063037    0.0321071578164284    0.029278227117419    0.027552736372194082    
  0.02643986450645537    0.02577706117721848    0.025346487867472612    0.02577706117721923    0.02643986450645462    
  0.027552736372194082    0.029278227117419092    0.032107157816428776    0.03568691630630426    0.04118432480467203    
  0.04880153019094826    0.05899689460267168    0.07384269475540388    0.09420141147482    0.12278345567456274    
  0.16235228617486777    0.2197248251503911    0.3015040361030806    0.4210254975461423    0.5963851644192398    
  0.8638700196518936    1.269475938668439    1.8657884322424372    2.756132958039378    3.98542957515462    
  5.360616393228776    6.448914051808307    6.909746681210164    6.86691300285505    6.770276585603442    
  6.866913002855051    6.918510990922281    6.85964538374044    6.310912636065213    5.197519616634453    
  3.852367460325291    2.6696139788252284    1.815657195027882    1.2399091291160307    0.8460910368964061    
  0.5862225376218734    0.415068125944146    0.29783796265377355    0.21721174372907967    0.1607168294953649    
  0.12182383553781118    0.0936651522283953    0.07364607239603407    0.05890392002454526    0.048622247997111796    
  0.04115153539443921    0.035801699004348445    0.032122465468522265    0.02941483448461269    0.02777213708521287    
  0.026588221573566946    0.026067480797956767    0.025777061219949434    0.026067480797956954    0.026588221573565822    
  0.027772137085212683    0.029414834484612972    0.03212246546852236    0.03580169900434878    0.04115153539443973    
  0.048622247997111935    0.05890392002454526    0.07364607239603436    0.09366515222839542    0.12182383553781066    
  0.16071682949536567    0.21721174372907914    0.29783796265377344    0.41506812594414644    0.5862225376218739    
  0.8460910368964059    1.2399091291160305    1.8156571950278824    2.6696139788252276    3.852367460325291    
  5.197519616634453    6.310912636065215    6.85964538374044    6.918510990922281    6.866913002855051    
  6.909746681210165    6.85964538374044    6.576835134483934    5.851992989968864    4.719333661453524    
  3.4799582266552505    2.4311151050266617    1.67646890747318    1.1566811748086703    0.7963380885035506    
  0.5574084660735773    0.39738893500359934    0.28690622607222194    0.21026778624923245    0.15648945272231912    
  0.1191233425871498    0.09177152299091519    0.07253554823822457    0.05838621835070682    0.048375827839415415    
  0.04118672814139248    0.036099631299936645    0.03243091286156111    0.029872328141705255    0.028251233544675215    
  0.026970470772037798    0.026588221639467204    0.026439864604247493    0.026588221639467766    0.026970470772036487    
  0.028251233544675028    0.029872328141705724    0.03243091286156125    0.03609963129993688    0.041186728141392806    
  0.048375827839415485    0.05838621835070682    0.07253554823822476    0.09177152299091512    0.11912334258714968    
  0.15648945272231965    0.21026778624923226    0.28690622607222205    0.3973889350035996    0.5574084660735779    
  0.7963380885035506    1.1566811748086703    1.6764689074731804    2.431115105026662    3.4799582266552505    
  4.719333661453524    5.851992989968864    6.576835134483934    6.85964538374044    6.909746681210165    
  6.448914051808307    6.310912636065215    5.851992989968865    5.0375408823456    3.989444067702244    
  2.946433749855242    2.0951609208730693    1.4760628860720044    1.0334977181451357    0.7225460271960972    
  0.5137916893913752    0.3700516616791179    0.2698836296127368    0.19936809162593938    0.1496983137997148    
  0.11478851979333173    0.08906287955746696    0.0708510296093489    0.05740494174256653    0.048133339225875135    
  0.041340260166957535    0.03649262549756891    0.03313791631600388    0.03077027986849003    0.029334840336168636    
  0.028251233659625778    0.02777213726112739    0.02755273656825904    0.027772137261128607    0.02825123365962503    
  0.029334840336168636    0.030770279868489937    0.033137916316004296    0.03649262549756886    0.04134026016695777    
  0.048133339225875135    0.05740494174256648    0.07085102960934901    0.08906287955746733    0.11478851979333157    
  0.14969831379971452    0.19936809162593905    0.2698836296127371    0.3700516616791182    0.5137916893913755    
  0.7225460271960972    1.0334977181451357    1.4760628860720053    2.0951609208730693    2.946433749855242    
  3.989444067702244    5.037540882345599    5.851992989968863    6.310912636065215    6.448914051808307    
  5.360616393228776    5.197519616634453    4.719333661453524    3.989444067702244    3.149070570708544    
  2.3619642638492033    1.7265936721467559    1.2464224913309967    0.8886705085558477    0.6352606956193981    
  0.4605561720850053    0.3363832314754396    0.2485545542489054    0.1855314709446871    0.1409765573816852    
  0.10909849226195581    0.08561410494993686    0.06875935662400992    0.056278219457017324    0.04790629743806332    
  0.04174743200882382    0.037278309827267236    0.03425583146631482    0.03206486005594294    0.030770279999710937    
  0.029872328372425365    0.029414834764234576    0.029278227409213577    0.029414834764235138    0.02987232837242527    
  0.030770279999711218    0.032064860055943174    0.03425583146631515    0.037278309827267285    0.041747432008823984    
  0.04790629743806339    0.056278219457017345    0.06875935662401018    0.08561410494993683    0.10909849226195527    
  0.14097655738168519    0.18553147094468653    0.24855455424890563    0.3363832314754402    0.4605561720850056    
  0.6352606956193981    0.8886705085558475    1.2464224913309971    1.7265936721467559    2.3619642638492033    
  3.1490705707085436    3.989444067702244    4.719333661453524    5.197519616634453    5.360616393228776    
  3.98542957515462    3.8523674603252913    3.4799582266552496    2.946433749855243    2.3619642638492033    
  1.8233551716902536    1.3744554416223684    1.0151604116319997    0.7412701275754011    0.544660443044362    
  0.40281954701038475    0.29933479161176724    0.22442426019159908    0.1699612509469686    0.131107858010189    
  0.10250988185156204    0.08152156830479693    0.06641633478463321    0.055462685334625124    0.04780630595688931    
  0.04231835700917188    0.03858127463737345    0.03604989469257094    0.03425583160972813    0.03313791656410673    
  0.03243091317914173    0.03212246580978109    0.032107158163092814    0.032122465809781606    0.03243091317914145    
  0.03313791656410659    0.034255831609728504    0.036049894692571215    0.038581274637373354    0.04231835700917198    
  0.04780630595688941    0.055462685334625096    0.0664163347846333    0.08152156830479691    0.10250988185156203    
  0.13110785801018898    0.1699612509469678    0.22442426019159886    0.2993347916117674    0.4028195470103849    
  0.5446604430443619    0.7412701275754008    1.015160411632    1.3744554416223684    1.8233551716902532    
  2.3619642638492038    2.946433749855242    3.4799582266552496    3.852367460325291    3.98542957515462    
  2.7561329580393785    2.669613978825228    2.4311151050266613    2.095160920873069    1.7265936721467559    
  1.374455441622368    1.0628586242296467    0.8045172195450192    0.6058947893073999    0.4572105422269329    
  0.344930977043633    0.26156598744891    0.1992946398536053    0.15370087372015748    0.12054018372572052    
  0.09578996127732411    0.07760905883952672    0.0642140960951358    0.05487347441238857    0.04817339025707972    
  0.04362834243475734    0.040657134047098635    0.038581274805209925    0.03727831011365304    0.03649262586547991    
  0.03609963171835134    0.03580169943188254    0.035686916744059806    0.035801699431883056    0.0360996317183511    
  0.03649262586547991    0.03727831011365332    0.0385812748052103    0.04065713404709849    0.04362834243475741    
  0.04817339025707972    0.05487347441238857    0.06421409609513587    0.07760905883952698    0.09578996127732399    
  0.12054018372572087    0.1537008737201569    0.1992946398536053    0.26156598744891013    0.34493097704363307    
  0.45721054222693286    0.6058947893073996    0.8045172195450193    1.0628586242296467    1.374455441622368    
  1.7265936721467554    2.0951609208730693    2.4311151050266613    2.6696139788252284    2.7561329580393785    
  1.8657884322424372    1.8156571950278824    1.67646890747318    1.4760628860720049    1.2464224913309971    
  1.0151604116319997    0.8045172195450193    0.6286555387050744    0.488470220831929    0.3773361384617342    
  0.29108872138805036    0.22515404122098465    0.17486910259453484    0.13786431350019837    0.1100641089888403    
  0.08917366467129971    0.07375189123460091    0.06245719357121885    0.05488064933080357    0.04954667267318751    
  0.0459850391769664    0.04362834264720628    0.04231835739195622    0.04174743249699795    0.04134026072666493    
  0.04118672874567651    0.04115153601603088    0.04118432545065221    0.04115153601603088    0.041186728745676325    
  0.04134026072666493    0.04174743249699783    0.04231835739195666    0.0436283426472063    0.0459850391769664    
  0.04954667267318756    0.05488064933080355    0.06245719357121898    0.07375189123460116    0.08917366467129928    
  0.11006410898884059    0.13786431350019832    0.17486910259453495    0.22515404122098512    0.2910887213880502    
  0.3773361384617341    0.4884702208319287    0.6286555387050747    0.8045172195450191    1.0151604116319997    
  1.2464224913309971    1.4760628860720049    1.6764689074731798    1.815657195027882    1.8657884322424372    
  1.2694759386684393    1.2399091291160305    1.15668117480867    1.0334977181451357    0.8886705085558477    
  0.7412701275754009    0.6058947893073996    0.4884702208319287    0.3890273476471221    0.30775218172498126    
  0.24294649486927244    0.19173413654918534    0.15262267098815951    0.12279482912129759    0.099958751732013    
  0.08307621619575588    0.07072948693354217    0.06197384972671371    0.05591462760318467    0.05195769810154391    
  0.049546672987944004    0.04817339080673278    0.047806306678406234    0.04790629827380913    0.04813334015519134    
  0.04837582885250021    0.04862224907537198    0.04880153131065879    0.04862224907537226    0.048375828852500184    
  0.04813334015519134    0.047906298273809454    0.047806306678406636    0.04817339080673299    0.049546672987943956    
  0.05195769810154384    0.05591462760318467    0.0619738497267138    0.07072948693354235    0.08307621619575589    
  0.09995875173201328    0.12279482912129736    0.15262267098815957    0.19173413654918572    0.2429464948692724    
  0.3077521817249811    0.38902734764712177    0.4884702208319289    0.6058947893073995    0.7412701275754007    
  0.8886705085558477    1.0334977181451357    1.1566811748086703    1.2399091291160307    1.2694759386684393    
  0.8638700196518936    0.8460910368964062    0.7963380885035507    0.7225460271960972    0.6352606956193987    
  0.544660443044362    0.45721054222693286    0.37733613846173414    0.30775218172498137    0.24919753591017674    
  0.20086813899150607    0.16256262785768869    0.1328882058392608    0.10930624132674986    0.09150510273409292    
  0.07830732657582364    0.06882482546984199    0.06245028725920835    0.05817366441096739    0.05591462802627872    
  0.05488065010362289    0.05487347547126221    0.055462686599160434    0.0562782208907881    0.05740494331144458    
  0.058386220037000704    0.058903921807698274    0.05899689642965903    0.05890392180769858    0.05838622003700054    
  0.05740494331144463    0.05627822089078801    0.05546268659916067    0.054873475471262374    0.05488065010362277    
  0.05591462802627864    0.05817366441096739    0.06245028725920865    0.06882482546984217    0.0783073265758236    
  0.09150510273409306    0.10930624132674978    0.1328882058392608    0.16256262785768877    0.20086813899150602    
  0.2491975359101766    0.3077521817249811    0.3773361384617342    0.4572105422269329    0.5446604430443619    
  0.6352606956193987    0.7225460271960974    0.7963380885035506    0.8460910368964066    0.8638700196518936    
  0.5963851644192399    0.5862225376218736    0.5574084660735772    0.5137916893913751    0.4605561720850055    
  0.40281954701038475    0.34493097704363296    0.29108872138805025    0.2429464948692726    0.20086813899150643    
  0.16606128863130654    0.1381249722204431    0.1155506660284844    0.09797787368637534    0.0847026576190995    
  0.0747714976967662    0.06833211121955476    0.06443315748128461    0.0624502878307182    0.061973850772227224    
  0.06245719503115361    0.06421409789209953    0.06641633682359992    0.0687593588633756    0.07085103198742325    
  0.07253555072806629    0.0736460749734788    0.07384269736419981    0.07364607497347882    0.07253555072806596    
  0.07085103198742321    0.06875935886337561    0.06641633682360004    0.06421409789209957    0.06245719503115354    
  0.06197385077222706    0.06245028783071825    0.06443315748128497    0.0683321112195551    0.0747714976967664    
  0.08470265761909987    0.09797787368637542    0.1155506660284846    0.1381249722204434    0.16606128863130645    
  0.20086813899150624    0.24294649486927225    0.2910887213880504    0.34493097704363296    0.40281954701038447    
  0.4605561720850052    0.513791689391375    0.5574084660735772    0.5862225376218737    0.5963851644192399    
  0.4210254975461425    0.4150681259441469    0.39738893500359984    0.37005166167911824    0.33638323147544    
  0.2993347916117674    0.2615659874489103    0.22515404122098498    0.1917341365491857    0.1625626278576888    
  0.13812497222044334    0.11769380227841968    0.10125877364785266    0.0889087672749714    0.07951331299662008    
  0.07331723107969622    0.06993962489169943    0.06833211191523898    0.06882482680506875    0.07072948883739746    
  0.07375189361214143    0.07760906155418312    0.08152157123497526    0.08561410801400499    0.08906288268964517    
  0.09177152617932816    0.09366515544656392    0.09420141469653923    0.09366515544656391    0.09177152617932792    
  0.08906288268964517    0.08561410801400465    0.0815215712349752    0.0776090615541834    0.07375189361214131    
  0.07072948883739726    0.06882482680506882    0.06833211191523927    0.06993962489169966    0.07331723107969575    
  0.07951331299662083    0.08890876727497084    0.10125877364785285    0.11769380227841977    0.1381249722204433    
  0.16256262785768882    0.1917341365491855    0.22515404122098515    0.26156598744891024    0.29933479161176724    
  0.3363832314754403    0.37005166167911846    0.3973889350035997    0.4150681259441465    0.4210254975461425    
  0.3015040361030812    0.2978379626537744    0.28690622607222266    0.26988362961273715    0.2485545542489056    
  0.224424260191599    0.1992946398536053    0.1748691025945345    0.15262267098816001    0.13288820583926103    
  0.1155506660284845    0.10125877364785153    0.09027404428391861    0.08214168769677314    0.07668321145590211    
  0.07400363060866903    0.0733172319043677    0.07477149931402209    0.0783073289248166    0.08307621915694442    
  0.08917366806435943    0.0957899648979507    0.10250988554796385    0.10909849591813983    0.11478852336353247    
  0.11912334608716024    0.12182383897470588    0.12278345908613715    0.121823838974706    0.11912334608716016    
  0.11478852336353247    0.10909849591813962    0.10250988554796388    0.09578996489795091    0.08917366806435931    
  0.08307621915694423    0.0783073289248166    0.07477149931402284    0.07331723190436788    0.07400363060866894    
  0.07668321145590286    0.08214168769677314    0.09027404428391861    0.10125877364785181    0.11555066602848464    
  0.13288820583926114    0.15262267098815976    0.17486910259453461    0.1992946398536053    0.2244242601915988    
  0.24855455424890577    0.2698836296127374    0.28690622607222266    0.2978379626537743    0.3015040361030812    
  0.21972482515039227    0.21721174372908028    0.2102677862492329    0.19936809162593974    0.18553147094468708    
  0.16996125094696812    0.1537008737201569    0.13786431350019795    0.1227948291212979    0.10930624132674978    
  0.09797787368637519    0.08890876727497113    0.08214168769677352    0.07780885935118116    0.07607376568690949    
  0.07668321236238634    0.07951331481996098    0.08470266032932304    0.09150510621583077    0.09995875575722936    
  0.11006411325435131    0.1205401879682145    0.13110786206554698    0.14097656116527105    0.14969831731901823    
  0.15648945602738965    0.16071683265199285    0.16235228928486228    0.16071683265199266    0.1564894560273897    
  0.1496983173190182    0.14097656116527071    0.13110786206554695    0.12054018796821483    0.11006411325435117    
  0.09995875575722915    0.09150510621583077    0.08470266032932304    0.07951331481996098    0.0766832123623856    
  0.07607376568691099    0.07780885935118116    0.0821416876967739    0.08890876727497056    0.0979778736863751    
  0.10930624132674982    0.12279482912129769    0.13786431350019807    0.15370087372015692    0.16996125094696804    
  0.18553147094468714    0.1993680916259398    0.21026778624923273    0.2172117437290801    0.21972482515039227    
  0.16235228617486755    0.16071682949536584    0.1564894527223196    0.14969831379971457    0.14097655738168544    
  0.13110785801018923    0.12054018372572096    0.11006410898884035    0.09995875173201359    0.09150510273409318    
  0.0847026576190995    0.07951331299662028    0.07668321145590305    0.07607376568691211    0.07780886029151945    
  0.08214168964478849    0.08890877024235624    0.09797787755635083    0.10930624584869485    0.1227948339249152    
  0.13786431821489165    0.15370087808511143    0.16996125481581295    0.1855314742741562    0.1993680944510116    
  0.2102677886535462    0.21721174585202005    0.2197248271797606    0.21721174585201986    0.21026778865354628    
  0.19936809445101167    0.18553147427415592    0.1699612548158128    0.15370087808511163    0.13786431821489162    
  0.12279483392491497    0.10930624584869485    0.0979778775563512    0.088908770242357    0.08214168964478924    
  0.0778088602915202    0.07607376568691136    0.07668321145590305    0.07951331299662028    0.08470265761909987    
  0.09150510273409315    0.09995875173201342    0.11006410898884036    0.12054018372572103    0.1311078580101891    
  0.1409765573816856    0.14969831379971488    0.15648945272231937    0.1607168294953657    0.16235228617486755    
  0.1227834556745632    0.1218238355378113    0.11912334258714952    0.1147885197933318    0.10909849226195588    
  0.10250988185156232    0.0957899612773244    0.08917366467129996    0.08307621619575611    0.0783073265758236    
  0.0747714976967663    0.07331723107969622    0.07400363060866819    0.0766832123623871    0.08214168964478812    
  0.0902740473361937    0.1012587777385482    0.11555067088821964    0.1328882110293129    0.15262267605573382    
  0.17486910716037668    0.1992946436510673    0.22442426307943947    0.24855455619780778    0.2698836306720622    
  0.28690622638095703    0.29783796246273336    0.30150403574055207    0.29783796246273325    0.2869062263809571    
  0.26988363067206217    0.24855455619780753    0.2244242630794394    0.19929464365106755    0.17486910716037654    
  0.1526226760557337    0.1328882110293129    0.11555067088821984    0.10125877773854858    0.0902740473361937    
  0.08214168964478868    0.07668321236238597    0.07400363060866846    0.07331723107969632    0.07477149769676658    
  0.07830732657582373    0.08307621619575595    0.08917366467129997    0.09578996127732442    0.10250988185156211    
  0.1090984922619559    0.11478851979333199    0.11912334258714927    0.121823835537811    0.1227834556745632    
  0.09420141147481985    0.09366515222839523    0.0917715229909151    0.08906287955746678    0.08561410494993689    
  0.08152156830479679    0.07760905883952673    0.07375189123460112    0.07072948693354246    0.06882482546984237    
  0.06833211121955494    0.06993962489169929    0.07331723190436788    0.07951331481996154    0.08890877024235662    
  0.10125877773854895    0.11769380724778947    0.13812497761653608    0.162562633135156    0.1917341412141703    
  0.225154044848651    0.2615659897413919    0.29933479239017524    0.336383230659197    0.37005165933124823    
  0.39738893136395764    0.415068121453328    0.42102549276678625    0.4150681214533277    0.3973889313639574    
  0.37005165933124823    0.3363832306591969    0.29933479239017524    0.2615659897413921    0.22515404484865087    
  0.19173414121417018    0.16256263313515606    0.13812497761653633    0.1176938072477897    0.10125877773854895    
  0.088908770242357    0.07951331481996098    0.07331723190436751    0.06993962489169939    0.06833211121955542    
  0.06882482546984237    0.07072948693354227    0.07375189123460113    0.07760905883952675    0.08152156830479661    
  0.0856141049499368    0.0890628795574671    0.09177152299091494    0.09366515222839523    0.09420141147481985    
  0.07384269475540386    0.07364607239603396    0.07253554823822461    0.07085102960934853    0.06875935662401002    
  0.06641633478463314    0.06421409609513556    0.0624571935712188    0.0619738497267138    0.06245028725920849    
  0.06443315748128464    0.06833211191523861    0.07477149931402266    0.08470266032932308    0.09797787755635064    
  0.11555067088821964    0.13812497761653603    0.166061293990913    0.20086814369099132    0.24294649832004922    
  0.29108872308534667    0.3449309765812834    0.402819544061245    0.4605561665074755    0.5137916813493155    
  0.5574084560262363    0.5862225262877513    0.5963851526508928    0.5862225262877507    0.5574084560262361    
  0.5137916813493155    0.46055616650747544    0.40281954406124515    0.34493097658128363    0.2910887230853465    
  0.2429464983200492    0.20086814369099132    0.16606129399091332    0.1381249776165363    0.1155506708882197    
  0.09797787755635134    0.084702660329323    0.07477149931402266    0.06833211191523918    0.06443315748128478    
  0.06245028725920854    0.061973849726713603    0.062457193571218796    0.06421409609513555    0.06641633478463306    
  0.06875935662400984    0.07085102960934876    0.07253554823822439    0.07364607239603366    0.07384269475540386    
  0.05899689460267149    0.058903920024544885    0.05838621835070682    0.05740494174256641    0.05627821945701743    
  0.055462685334625166    0.0548734744123884    0.054880649330803596    0.05591462760318468    0.05817366441096737    
  0.062450287830718036    0.06882482680506855    0.07830732892481693    0.09150510621583091    0.10930624584869457    
  0.13288821102931314    0.1625626331351559    0.20086814369099124    0.2491975392920822    0.30775218306491653    
  0.3773361370428161    0.4572105373907697    0.544660434351959    0.6352606829638451    0.7225460108335462    
  0.7963380691195848    0.8460910155540012    0.8638699976291926    0.8460910155540009    0.7963380691195844    
  0.7225460108335462    0.6352606829638453    0.5446604343519594    0.4572105373907698    0.37733613704281593    
  0.30775218306491653    0.2491975392920822    0.20086814369099143    0.16256263313515598    0.132888211029313    
  0.10930624584869508    0.09150510621583095    0.07830732892481693    0.06882482680506895    0.06245028783071813    
  0.05817366441096734    0.055914627603184455    0.05488064933080353    0.0548734744123884    0.05546268533462499    
  0.05627821945701717    0.05740494174256651    0.058386218350706634    0.058903920024544906    0.05899689460267149    
  0.04880153019094774    0.048622247997111116    0.04837582783941511    0.04813333922587488    0.04790629743806323    
  0.04780630595688924    0.048173390257079486    0.04954667267318763    0.05195769810154396    0.055914628026278515    
  0.06197385077222692    0.07072948883739685    0.08307621915694434    0.09995875575722879    0.12279483392491487    
  0.1526226760557336    0.19173414121417018    0.24294649832004894    0.30775218306491653    0.3890273458774181    
  0.4884702149108432    0.6058947783650352    0.7412701109450321    0.8886704858418428    1.0334976894888734    
  1.1566811411662168    1.2399090921543983    1.2694759005272633    1.2399090921543978    1.1566811411662168    
  1.0334976894888734    0.8886704858418428    0.7412701109450324    0.6058947783650354    0.4884702149108429    
  0.389027345877418    0.30775218306491653    0.24294649832004914    0.19173414121417015    0.15262267605573357    
  0.1227948339249152    0.09995875575722887    0.08307621915694464    0.07072948883739728    0.06197385077222699    
  0.05591462802627857    0.05195769810154372    0.04954667267318756    0.048173390257079486    0.047806305956889124    
  0.04790629743806323    0.04813333922587471    0.04837582783941492    0.04862224799711135    0.04880153019094774    
  0.04118432480467212    0.04115153539443888    0.04118672814139243    0.04134026016695749    0.04174743200882373    
  0.04231835700917179    0.043628342434757196    0.04598503917696654    0.049546672987944074    0.05488065010362287    
  0.06245719503115369    0.07375189361214148    0.08917366806435978    0.1100641132543511    0.13786431821489167    
  0.17486910716037599    0.22515404484865084    0.2910887230853466    0.3773361370428162    0.4884702149108432    
  0.6286555269414017    0.8045172005781489    1.0151603839881693    1.246422453908186    1.4760628385714238    
  1.6764688508262928    1.8156571318079642    1.8657883665984802    1.8156571318079637    1.6764688508262928    
  1.4760628385714238    1.2464224539081858    1.0151603839881695    0.8045172005781489    0.6286555269414015    
  0.4884702149108431    0.3773361370428162    0.29108872308534667    0.22515404484865112    0.17486910716037649    
  0.13786431821489153    0.1100641132543512    0.08917366806435988    0.07375189361214171    0.06245719503115369    
  0.05488065010362287    0.04954667298794375    0.04598503917696638    0.043628342434757175    0.04231835700917169    
  0.0417474320088237    0.04134026016695772    0.041186728141392334    0.04115153539443893    0.04118432480467212    
  0.03568691630630374    0.035801699004348216    0.03609963129993599    0.03649262549756835    0.037278309827267285    
  0.038581274637373215    0.04065713404709847    0.04362834264720635    0.04817339080673301    0.05487347547126219    
  0.0642140978920999    0.07760906155418329    0.09578996489795195    0.12054018796821495    0.15370087808511115    
  0.1992946436510671    0.26156598974139217    0.3449309765812834    0.4572105373907698    0.6058947783650354    
  0.804517200578149    1.062858594721386    1.3744553987043482    1.7265936127966954    2.0951608425163015    
  2.4311150077829926    2.6696138674288696    2.756132841381126    2.6696138674288696    2.431115007782992    
  2.0951608425163015    1.726593612796695    1.3744553987043484    1.062858594721386    0.8045172005781487    
  0.6058947783650354    0.4572105373907699    0.3449309765812835    0.26156598974139256    0.19929464365106764    
  0.15370087808511146    0.12054018796821515    0.09578996489795186    0.07760906155418335    0.0642140978920998    
  0.05487347547126235    0.04817339080673271    0.04362834264720614    0.04065713404709847    0.038581274637373146    
  0.03727830982726733    0.03649262549756872    0.03609963129993604    0.03580169900434826    0.03568691630630374    
  0.0321071578164284    0.0321224654685218    0.03243091286156079    0.03313791631600383    0.03425583146631477    
  0.0360498946925714    0.0385812748052103    0.04231835739195668    0.04780630667840647    0.05546268659916054    
  0.0664163368236    0.08152157123497514    0.10250988554796353    0.13110786206554617    0.16996125481581234    
  0.224424263079439    0.2993347923901749    0.402819544061245    0.5446604343519591    0.7412701109450326    
  1.0151603839881693    1.3744553987043486    1.8233551075300074    2.361964170366936    2.946433620709867    
  3.479958062823795    3.852367271525967    3.985429377307394    3.852367271525968    3.479958062823794    