#     DFTpy    
  CRYSTAL 
    
  PRIMVEC    
  4.65370876383607    0.0    0.0    
  -0.0    4.65370876383607    0.0    
  0.0    0.0    4.65370876383607    
  PRIMCOORD    
  12    1    
  Li    1.16342719095902    3.49028157287705    1.16342719095902    
  Li    3.49028157287705    1.16342719095902    3.49028157287705    
  Li    1.16342719095902    1.16342719095902    3.49028157287705    
  Li    3.49028157287705    3.49028157287705    1.16342719095902    
  Li    3.49028157287705    3.49028157287705    3.49028157287705    
  Li    1.16342719095902    1.16342719095902    1.16342719095902    
  Li    3.49028157287705    1.16342719095902    1.16342719095902    
  Li    1.16342719095902    3.49028157287705    3.49028157287705    
  O    0.0    0.0    0.0    
  O    -0.0    2.32685438191803    2.32685438191803    
  O    2.32685438191803    0.0    2.32685438191803    
  O    2.32685438191803    2.32685438191803    0.0    
  BEGIN_BLOCK_DATAGRID_3D    
  3d_datagrid_density    
  BEGIN_DATAGRID_3D#0    
  55    55    55    
  0.0    0.0    0.0    
  4.653708760853427    0.0    0.0    
  -0.0    4.653708760853427    0.0    
  0.0    0.0    4.653708760853427    
  6.944314379342042    7.010900363397693    6.984297725159245    6.456785964131408    5.331955055650625    
  3.949480631685777    2.7271223505146445    1.846064073424773    1.2571296829591438    0.8566210118328542    
  0.5923865649335134    0.4190269111344317    0.300757191250225    0.21977270901168375    0.16290008356818006    
  0.12362344994191402    0.09519631242767763    0.07490225299487699    0.06005562232451244    0.0498015461090684    
  0.04207989358332873    0.03644945172946402    0.03273186052936535    0.029781557051819906    0.027959558323722163    
  0.026780120890404546    0.0260814843886921    0.025641063895451906    0.0260814843886921    0.02678012089040567    
  0.027959558323722163    0.029781557051820656    0.03273186052936601    0.036449451729463546    0.042079893583329205    
  0.0498015461090685    0.06005562232451244    0.07490225299487692    0.0951963124276783    0.12362344994191378    
  0.1629000835681794    0.2197727090116836    0.300757191250225    0.419026911134432    0.5923865649335137    
  0.8566210118328539    1.2571296829591438    1.846064073424773    2.7271223505146445    3.9494806316857773    
  5.331955055650624    6.456785964131408    6.9842977251592435    7.010900363397694    6.944314379342042    
  7.010900363397694    7.0361637982911045    6.916726702421567    6.310521778343949    5.166667046540419    
  3.816773341343184    2.6414385027727496    1.7965806013299495    1.2279767033566638    0.8390905551897487    
  0.5823704199561324    0.4131614800922847    0.29715347547686943    0.2173044138170957    0.16129545497412248    
  0.12268397472948783    0.0946743095459808    0.07471610512404053    0.05997067135651398    0.04962832904125047    
  0.0420509199006586    0.03656753251465524    0.03275200706044388    0.029924798348936573    0.028188325754016506    
  0.02694039888535119    0.026383128391681943    0.02608148431125055    0.026383128391681193    0.026940398885351564    
  0.028188325754016693    0.02992479834893751    0.032752007060444864    0.03656753251465496    0.04205091990065893    
  0.04962832904125068    0.05997067135651393    0.07471610512404042    0.09467430954598134    0.12268397472948762    
  0.16129545497412232    0.21730441381709606    0.29715347547686916    0.41316148009228504    0.5823704199561329    
  0.8390905551897483    1.2279767033566635    1.796580601329949    2.6414385027727496    3.816773341343184    
  5.166667046540417    6.310521778343948    6.916726702421565    7.0361637982911045    7.010900363397694    
  6.984297725159245    6.916726702421567    6.5943910132641745    5.833696611574309    4.684535130133513    
  3.445993684736194    2.405379488718208    1.6592075827571227    1.1459095734543128    0.7900409195469581    
  0.5539802346266035    0.3957565885123289    0.2864101800425442    0.2104942994855819    0.15716205835135613    
  0.12005118674673683    0.09283362972054693    0.07364656347104238    0.05948308367255902    0.04940223706604081    
  0.042099037509093225    0.03687712926525081    0.033076656621646425    0.030404887116425507    0.028696883476519063    
  0.027357777816881708    0.026940398617408826    0.02678012054334014    0.026940398617409014    0.027357777816882176    
  0.028696883476519063    0.03040488711642607    0.033076656621647174    0.03687712926525076    0.04209903750909379    
  0.049402237066041    0.05948308367255902    0.07364656347104229    0.0928336297205474    0.12005118674673664    
  0.15716205835135602    0.21049429948558157    0.2864101800425442    0.3957565885123296    0.5539802346266037    
  0.7900409195469577    1.1459095734543128    1.6592075827571229    2.405379488718208    3.445993684736194    
  4.684535130133513    5.833696611574309    6.5943910132641745    6.916726702421567    6.984297725159245    
  6.4567859641314085    6.310521778343949    5.833696611574309    5.005047737308868    3.9537278139149454    
  2.9161728710680377    2.0731676404512562    1.4614463011002    1.0244256092464241    0.7172960718107136    
  0.5110143129738609    0.3688512308234811    0.2696890414326372    0.19981247524655169    0.1505314587542778    
  0.11584076519783731    0.09022590127587567    0.07204308187736579    0.05856231569466333    0.049199527881710406    
  0.0422790341727938    0.03729444246941689    0.03381458517196135    0.031345007509520205    0.029832320676519856    
  0.028696883059404214    0.028188325076532274    0.02795955756940849    0.02818832507653265    0.028696883059404495    
  0.029832320676519388    0.03134500750952049    0.033814585171961675    0.037294442469416794    0.042279034172794126    
  0.04919952788171064    0.05856231569466333    0.07204308187736569    0.0902259012758759    0.11584076519783694    
  0.15053145875427806    0.19981247524655127    0.2696890414326372    0.36885123082348176    0.5110143129738612    
  0.7172960718107135    1.0244256092464241    1.4614463011002001    2.0731676404512562    2.9161728710680377    
  3.9537278139149454    5.005047737308868    5.833696611574309    6.31052177834395    6.4567859641314085    
  5.331955055650624    5.166667046540419    4.684535130133513    3.9537278139149454    3.1173376838036355    
  2.337211867866089    1.7090446743530048    1.2348519848125414    0.8815708318700987    0.6312498726610268    
  0.4585744351961798    0.33572189887512605    0.24874447081924098    0.18626219594472482    0.1420314569282721    
  0.11033152607100039    0.08692598696271586    0.07007133282801603    0.057524856203438036    0.04903301692084114    
  0.042729957734330755    0.0381210647675111    0.034981256029585225    0.032702786694352774    0.031345006914871736    
  0.03040488609933007    0.029924797067901084    0.029781555692351656    0.029924797067901552    0.030404886099330446    
  0.031345006914871736    0.03270278669435305    0.034981256029585225    0.03812106476751115    0.04272995773433106    
  0.049033016920841395    0.057524856203438154    0.07007133282801582    0.08692598696271611    0.11033152607100025    
  0.14203145692827232    0.18626219594472423    0.24874447081924064    0.3357218988751266    0.4585744351961799    
  0.6312498726610268    0.8815708318700987    1.2348519848125417    1.7090446743530048    2.3372118678660896    
  3.1173376838036355    3.9537278139149454    4.684535130133513    5.166667046540419    5.331955055650624    
  3.9494806316857773    3.816773341343184    3.445993684736194    2.9161728710680377    2.3372118678660896    
  1.8046987956181757    1.3613772887218105    1.006636577428428    0.7361576866744867    0.5419261508573628    
  0.40168630069956185    0.2992646540671803    0.22504981368652516    0.17102770264158143    0.13243367168522635    
  0.10396892833243897    0.08301701712364959    0.06786958268217533    0.05681005282495781    0.049005361826790446    
  0.04336067074621238    0.03948511578990414    0.036847961509091774    0.03498125524374967    0.03381458380032438    
  0.033076654825002556    0.03275200500491108    0.032731858395834576    0.03275200500491127    0.03307665482500317    
  0.03381458380032438    0.03498125524374971    0.03684796150909168    0.03948511578990421    0.04336067074621257    
  0.04900536182679063    0.05681005282495781    0.0678695826821754    0.08301701712364946    0.10396892833243844    
  0.13243367168522654    0.17102770264158157    0.225049813686525    0.29926465406718067    0.4016863006995618    
  0.5419261508573628    0.7361576866744868    1.0066365774284283    1.36137728872181    1.8046987956181761    
  2.337211867866089    2.9161728710680372    3.445993684736194    3.816773341343184    3.9494806316857773    
  2.727122350514645    2.64143850277275    2.405379488718208    2.0731676404512562    1.7090446743530052    
  1.3613772887218103    1.0537914337634262    0.7987354653711943    0.6025906332223493    0.45567566511377905    
  0.34462406883811203    0.2620921541444645    0.20037644827378065    0.1551318632301254    0.12216582985380882    
  0.09749258427476544    0.07929262533315143    0.06580417600717739    0.05631673085624021    0.04944908011238836    
  0.04474725159025336    0.04165011048348024    0.03948511482543375    0.03812106301210556    0.03729444011427651    
  0.03687712647898613    0.03656752947843289    0.03644944860703162    0.03656752947843303    0.036877126478986416    
  0.03729444011427651    0.03812106301210552    0.03948511482543368    0.04165011048348019    0.04474725159025343    
  0.04944908011238862    0.05631673085624021    0.06580417600717763    0.07929262533315126    0.09749258427476519    
  0.12216582985380907    0.15513186323012526    0.20037644827378065    0.2620921541444646    0.3446240688381119    
  0.4556756651137791    0.6025906332223493    0.7987354653711944    1.0537914337634262    1.3613772887218103    
  1.7090446743530048    2.0731676404512562    2.4053794887182076    2.64143850277275    2.727122350514645    
  1.8460640734247726    1.79658060132995    1.6592075827571229    1.4614463011002001    1.2348519848125417    
  1.0066365774284283    0.7987354653711942    0.6251359430342687    0.48669782856677124    0.37685821047257667    
  0.29153831035627614    0.2262509396915234    0.1764014808511835    0.13966024418508857    0.11198442651018146    
  0.0911031820458357    0.07560074280663043    0.06416395752290671    0.0564135875246951    0.05091050398606242    
  0.04720858300803628    0.04474725043428643    0.04336066861793842    0.042729954814542954    0.04227903065140785    
  0.042099033563287744    0.0420509157060984    0.04207988928701063    0.042050915706098216    0.04209903356328809    
  0.0422790306514079    0.042729954814542746    0.04336066861793828    0.04474725043428617    0.04720858300803635    
  0.05091050398606261    0.05641358752469503    0.06416395752290692    0.07560074280663008    0.09110318204583495    
  0.11198442651018133    0.1396602441850886    0.17640148085118376    0.22625093969152363    0.29153831035627603    
  0.3768582104725768    0.48669782856677113    0.6251359430342689    0.7987354653711943    1.0066365774284285    
  1.2348519848125412    1.4614463011002    1.6592075827571227    1.7965806013299495    1.8460640734247726    
  1.2571296829591436    1.2279767033566635    1.1459095734543125    1.024425609246424    0.8815708318700987    
  0.7361576866744863    0.6025906332223488    0.48669782856677096    0.38848751200250214    0.3081610364086984    
  0.24406072312482754    0.193353172694992    0.15457267042437403    0.12492388781846875    0.10213400776407813    
  0.08518871012641292    0.07270526270617379    0.06377649825963048    0.057543243372891684    0.053436781497041265    
  0.05091050264561117    0.04944907762935102    0.04900535837681657    0.04903301268935704    0.049199523047955995    
  0.04940223180312141    0.049628323530971526    0.04980154050223079    0.04962832353097202    0.04940223180312216    
  0.049199523047955954    0.04903301268935657    0.04900535837681669    0.04944907762935079    0.05091050264561129    
  0.05343678149704142    0.05754324337289166    0.06377649825963082    0.07270526270617388    0.08518871012641262    
  0.10213400776407756    0.12492388781846891    0.15457267042437406    0.19335317269499208    0.24406072312482735    
  0.3081610364086984    0.3884875120025021    0.48669782856677096    0.602590633222349    0.7361576866744866    
  0.8815708318700984    1.0244256092464237    1.1459095734543123    1.2279767033566638    1.2571296829591436    
  0.8566210118328541    0.8390905551897487    0.7900409195469583    0.7172960718107138    0.6312498726610268    
  0.5419261508573628    0.45567566511377894    0.3768582104725767    0.30816103640869863    0.25032067881712455    
  0.20254175066246718    0.1646269500055398    0.13518835679172067    0.11169915639418092    0.09386515113409195    
  0.08054542679937521    0.07089538436219613    0.06434780109080906    0.05992145631863996    0.0575432418922703    
  0.05641358471594898    0.0563167268961919    0.056810047895689414    0.05752485048799257    0.05856230937477083    
  0.0594830769283017    0.059970664358542466    0.06005561523753683    0.05997066435854284    0.05948307692830175    
  0.05856230937477092    0.0575248504879922    0.05681004789568955    0.05631672689619174    0.05641358471594899    
  0.057543241892270475    0.05992145631863996    0.06434780109080926    0.07089538436219607    0.08054542679937501    
  0.09386515113409138    0.11169915639418102    0.13518835679172064    0.1646269500055399    0.2025417506624668    
  0.25032067881712455    0.3081610364086987    0.3768582104725769    0.45567566511377905    0.5419261508573628    
  0.6312498726610268    0.7172960718107135    0.7900409195469578    0.8390905551897482    0.8566210118328541    
  0.5923865649335129    0.5823704199561321    0.5539802346266038    0.511014312973861    0.4585744351961799    
  0.4016863006995618    0.344624068838112    0.2915383103562759    0.24406072312482757    0.20254175066246702    
  0.16816927656568573    0.14052600819785513    0.1180986512646624    0.10053688705198241    0.08716893408284643    
  0.0770887588988371    0.07048744874432496    0.06644513694320436    0.06434779947816474    0.0637764951443368    
  0.06416395308887121    0.06580417043153379    0.067869576165383    0.07007132552653068    0.07204307398141337    
  0.07364655517122448    0.07471609656968722    0.07490224435942931    0.07471609656968775    0.07364655517122473    
  0.0720430739814131    0.07007132552653023    0.06786957616538322    0.06580417043153365    0.06416395308887121    
  0.06377649514433688    0.06434779947816474    0.06644513694320459    0.07048744874432487    0.07708875889883733    
  0.08716893408284586    0.10053688705198288    0.11809865126466203    0.1405260081978552    0.16816927656568528    
  0.20254175066246694    0.24406072312482768    0.29153831035627614    0.344624068838112    0.40168630069956174    
  0.45857443519617963    0.511014312973861    0.5539802346266034    0.5823704199561323    0.5923865649335129    
  0.4190269111344315    0.4131614800922844    0.39575658851232925    0.36885123082348126    0.3357218988751263    
  0.2992646540671804    0.26209215414446474    0.22625093969152388    0.19335317269499216    0.16462695000554023    
  0.14052600819785582    0.1202999183115836    0.10393172384330839    0.09153400998107929    0.08202385575664553    
  0.07569212875565277    0.07219220825410012    0.07048744701773646    0.07089538100711561    0.07270525787650882    
  0.07560073668681386    0.07929261809276857    0.08301700895964911    0.08692597803263936    0.09022589176969238    
  0.09283361980841512    0.09467429939309452    0.09519630221201555    0.09467429939309513    0.09283361980841523    
  0.09022589176969231    0.08692597803263884    0.08301700895964922    0.07929261809276858    0.07560073668681373    
  0.07270525787650883    0.07089538100711555    0.07048744701773674    0.07219220825410028    0.07569212875565295    
  0.08202385575664543    0.09153400998107966    0.10393172384330839    0.1202999183115836    0.14052600819785555    
  0.16462695000554006    0.19335317269499222    0.22625093969152396    0.26209215414446474    0.29926465406718056    
  0.335721898875126    0.3688512308234809    0.3957565885123288    0.4131614800922846    0.4190269111344315    
  0.30075719125022526    0.2971534754768691    0.28641018004254426    0.2696890414326374    0.24874447081924075    
  0.22504981368652507    0.20037644827378057    0.17640148085118326    0.1545726704243739    0.13518835679172048    
  0.11809865126466254    0.10393172384330839    0.09295634993803482    0.08475776019213535    0.07920582167546998    
  0.07644145010489117    0.075692126950456    0.07708875535774554    0.08054542166162726    0.08518870355913821    
  0.09110317421460541    0.09749257538001359    0.10396891856202797    0.11033151561889505    0.1158407542455661    
  0.1200511754285469    0.1226839632014553    0.12362343835069498    0.12268396320145558    0.12005117542854676    
  0.1158407542455661    0.11033151561889482    0.10396891856202796    0.09749257538001363    0.09110317421460531    
  0.08518870355913813    0.08054542166162726    0.07708875535774577    0.07569212695045648    0.07644145010489192    
  0.0792058216754698    0.0847577601921346    0.09295634993803482    0.10393172384330848    0.11809865126466236    
  0.13518835679172028    0.15457267042437392    0.17640148085118343    0.20037644827378057    0.22504981368652507    
  0.24874447081924064    0.26968904143263733    0.28641018004254426    0.2971534754768689    0.30075719125022526    
  0.21977270901168428    0.21730441381709598    0.21049429948558268    0.19981247524655127    0.18626219594472485    
  0.17102770264158207    0.15513186323012557    0.13966024418508904    0.12492388781846868    0.11169915639418139    
  0.10053688705198283    0.09153400998108013    0.08475776019213592    0.08038424811220615    0.07861313330180053    
  0.07920581981834518    0.08202385211153643    0.08716892874025894    0.09386514423885114    0.10213399949532108    
  0.11198441708739197    0.12216581950023943    0.13243366055667333    0.14203144522220215    0.15053144662962917    
  0.15716204594168676    0.16129544240597993    0.16290007092977016    0.1612954424059806    0.15716204594168667    
  0.15053144662962906    0.14203144522220196    0.13243366055667327    0.12216581950023946    0.1119844170873918    
  0.10213399949532104    0.0938651442388512    0.08716892874025903    0.08202385211153605    0.07920581981834536    
  0.07861313330179996    0.08038424811220578    0.08475776019213592    0.09153400998107948    0.10053688705198265    
  0.11169915639418095    0.12492388781846885    0.13966024418508907    0.15513186323012557    0.1710277026415822    
  0.18626219594472465    0.19981247524655127    0.2104942994855826    0.2173044138170959    0.21977270901168428    
  0.162900083568179    0.16129545497412187    0.15716205835135566    0.1505314587542779    0.14203145692827196    
  0.13243367168522646    0.122165829853809    0.11198442651018184    0.10213400776407765    0.09386515113409159    
  0.0871689340828467    0.08202385575664421    0.07920582167546886    0.07861313330179978    0.08038424624523816    
  0.08475775649066004    0.09153400450838022    0.1005368799493575    0.11169914785538812    0.1249238780714519    
  0.13966023344557935    0.15513185170925747    0.1710276905534734    0.1862621835112647    0.1998124626095753    
  0.2104942867410099    0.2173044010281679    0.2197726961927546    0.21730440102816836    0.2104942867410099    
  0.19981246260957525    0.18626218351126456    0.17102769055347333    0.15513185170925745    0.13966023344557915    
  0.12492387807145176    0.11169914785538808    0.10053687994935769    0.09153400450838022    0.08475775649066004    
  0.08038424624523965    0.07861313330179903    0.07920582167546886    0.0820238557566444    0.08716893408284633    
  0.09386515113409132    0.10213400776407765    0.11198442651018188    0.12216582985380899    0.13243367168522632    
  0.14203145692827202    0.15053145875427776    0.15716205835135558    0.16129545497412173    0.162900083568179    
  0.12362344994191332    0.12268397472948724    0.1200511867467366    0.11584076519783687    0.11033152607099966    
  0.10396892833243837    0.09749258427476507    0.09110318204583502    0.08518871012641284    0.08054542679937515    
  0.07708875889883714    0.0756921287556522    0.07644145010489174    0.07920581981834574    0.08475775649066229    
  0.0929563444444684    0.10393171665003467    0.11809864258666473    0.13518834685859632    0.1545726594931517    
  0.17640146919945987    0.2003764362079647    0.22504980147109188    0.2487444586413939    0.2696890294334286    
  0.2864101682497908    0.2971534638439051    0.3007571796767409    0.2971534638439055    0.28641016824979093    
  0.2696890294334287    0.24874445864139383    0.22504980147109177    0.2003764362079647    0.1764014691994597    
  0.1545726594931516    0.13518834685859632    0.11809864258666491    0.1039317166500342    0.09295634444446878    
  0.08475775649066154    0.07920581981834611    0.07644145010489174    0.0756921287556524    0.07708875889883686    
  0.08054542679937493    0.08518871012641285    0.09110318204583512    0.09749258427476507    0.10396892833243823    
  0.1103315260709997    0.11584076519783666    0.12005118674673657    0.12268397472948707    0.12362344994191332    
  0.09519631242767741    0.09467430954598072    0.09283362972054734    0.09022590127587567    0.08692598696271618    
  0.08301701712364963    0.07929262533315129    0.07560074280663028    0.07270526270617417    0.07089538436219626    
  0.07048744874432505    0.07219220825410004    0.07569212695045648    0.08202385211153643    0.09153400450838022    
  0.10393171665003458    0.12029990958249805    0.14052599818950404    0.16462693899946176    0.19335316106929404    
  0.22625092786204198    0.26209214250210694    0.2992646429541963    0.3357218885578372    0.36885122144689364    
  0.3957565799786954    0.41316147213368815    0.41902690338185505    0.4131614721336887    0.39575657997869534    
  0.36885122144689375    0.335721888557837    0.29926464295419636    0.2620921425021069    0.22625092786204185    
  0.19335316106929384    0.1646269389994617    0.14052599818950412    0.12029990958249823    0.10393171665003467    
  0.09153400450838022    0.0820238521115368    0.07569212695045648    0.07219220825410022    0.07048744874432478    
  0.07089538436219593    0.0727052627061743    0.07560074280663039    0.07929262533315132    0.0830170171236495    
  0.08692598696271608    0.09022590127587564    0.09283362972054733    0.0946743095459809    0.09519631242767741    
  0.07490225299487639    0.07471610512404019    0.07364656347104218    0.07204308187736533    0.07007133282801567    
  0.0678695826821754    0.06580417600717753    0.06416395752290684    0.06377649825963082    0.06434780109080954    
  0.06644513694320459    0.07048744701773632    0.07708875535774633    0.08716892874025903    0.10053687994935764    
  0.11809864258666483    0.14052599818950412    0.16816926555474537    0.2025417391082837    0.24406071157151196    
  0.29153829938785514    0.34462405908120086    0.4016862927458664    0.45857442942348414    0.5110143094312289    
  0.5539802330295194    0.5823704196957646    0.59238656513939    0.582370419695765    0.5539802330295193    
  0.5110143094312292    0.45857442942348386    0.40168629274586665    0.3446240590812009    0.291538299387855    
  0.24406071157151188    0.2025417391082837    0.16816926555474537    0.1405259981895041    0.11809864258666473    
  0.10053687994935741    0.08716892874025894    0.07708875535774629    0.07048744701773664    0.06644513694320436    
  0.0643478010908093    0.06377649825963087    0.06416395752290681    0.06580417600717749    0.0678695826821752    
  0.0700713328280156    0.07204308187736536    0.07364656347104208    0.0747161051240402    0.07490225299487639    
  0.060055622324512135    0.05997067135651403    0.059483083672558786    0.058562315694663095    0.05752485620343787    
  0.05681005282495774    0.05631673085624014    0.056413587524694796    0.05754324337289159    0.05992145631864003    
  0.06434779947816488    0.07089538100711534    0.08054542166162744    0.09386514423885114    0.11169914785538848    
  0.13518834685859638    0.16462693899946185    0.2025417391082836    0.25032066737718184    0.3081610258885229    
  0.3768582018881679    0.45567565950161587    0.5419261490677062    0.6312498752955628    0.7172960790571309    
  0.7900409309283777    0.8390905694552158    0.8566210271220678    0.8390905694552163    0.7900409309283772    
  0.7172960790571309    0.6312498752955626    0.5419261490677063    0.455675659501616    0.37685820188816777    
  0.30816102588852273    0.25032066737718184    0.20254173910828366    0.16462693899946204    0.13518834685859638    
  0.11169914785538819    0.09386514423885162    0.08054542166162744    0.07089538100711526    0.06434779947816456    
  0.05992145631863979    0.05754324337289153    0.056413587524694796    0.05631673085624014    0.056810052824957526    
  0.05752485620343797    0.058562315694663164    0.05948308367255907    0.05997067135651386    0.060055622324512135    
  0.04980154610906859    0.0496283290412504    0.04940223706604095    0.049199527881710475    0.049033016920841443    
  0.049005361826790654    0.049449080112388716    0.0509105039860626    0.05343678149704164    0.05754324189227057    
  0.06377649514433709    0.07270525787650864    0.08518870355913823    0.10213399949532026    0.12492387807145149    
  0.15457265949315177    0.1933531610692938    0.24406071157151168    0.3081610258885229    0.38848750387690245    
  0.48669782441403353    0.6025906346501899    0.7361576953617568    0.8815708491996452    1.0244256356284083    
  1.1459096078483928    1.227976743298436    1.2571297248930322    1.227976743298437    1.1459096078483928    
  1.0244256356284083    0.8815708491996449    0.7361576953617569    0.6025906346501899    0.48669782441403353    
  0.3884875038769022    0.3081610258885229    0.24406071157151168    0.19335316106929393    0.15457265949315174    
  0.12492387807145129    0.10213399949532066    0.08518870355913816    0.07270525787650839    0.06377649514433682    
  0.0575432418922703    0.053436781497041466    0.05091050398606249    0.04944908011238874    0.049005361826790377    
  0.049033016920841485    0.049199527881710545    0.04940223706604109    0.049628329041250516    0.04980154610906859    
  0.04207989358332888    0.04205091990065865    0.04209903750909306    0.04227903417279389    0.04272995773433094    
  0.043360670746212616    0.04474725159025348    0.04720858300803614    0.05091050264561143    0.05641358471594902    
  0.06416395308887106    0.07560073668681358    0.09110317421460541    0.1119844170873918    0.1396602334455792    
  0.1764014691994599    0.22625092786204154    0.29153829938785486    0.3768582018881676    0.48669782441403314    
  0.6251359457219472    0.7987354779177088    1.0066366030479206    1.2348520258068938    1.4614463582028963    
  1.65920765450731    1.7965806835247722    1.846064159433276    1.7965806835247724    1.6592076545073098    
  1.4614463582028965    1.2348520258068938    1.0066366030479206    0.798735477917709    0.6251359457219472    
  0.48669782441403303    0.3768582018881676    0.29153829938785486    0.22625092786204157    0.17640146919945968    
  0.13966023344557926    0.11198441708739303    0.09110317421460544    0.07560073668681337    0.06416395308887078    
  0.05641358471594887    0.05091050264561127    0.04720858300803604    0.04474725159025348    0.04336067074621233    
  0.04272995773433092    0.04227903417279373    0.04209903750909365    0.04205091990065884    0.04207989358332888    
  0.03644945172946317    0.03656753251465407    0.03687712926524987    0.03729444246941614    0.03812106476751106    
  0.039485115789904095    0.04165011048348029    0.04474725043428617    0.0494490776293513    0.056316726896192    
  0.06580417043153387    0.07929261809276845    0.09749257538001344    0.12216581950023898    0.15513185170925736    
  0.20037643620796486    0.2620921425021067    0.34462405908120086    0.4556756595016161    0.6025906346501899    
  0.798735477917709    1.053791462596153    1.3613773389630526    1.709044750485308    2.0731677452723503    
  2.4053796208262943    2.641438654742061    2.727122509770904    2.6414386547420614    2.4053796208262948    
  2.0731677452723503    1.7090447504853075    1.3613773389630526    1.0537914625961533    0.7987354779177093    
  0.6025906346501898    0.4556756595016161    0.34462405908120053    0.262092142502107    0.20037643620796408    
  0.15513185170925736    0.1221658195002394    0.09749257538001344    0.07929261809276834    0.06580417043153379    
  0.0563167268961919    0.049449077629351065    0.044747250434285915    0.04165011048348029    0.03948511578990384    
  0.0381210647675112    0.03729444246941619    0.03687712926525025    0.036567532514654444    0.03644945172946317    
  0.032731860529365636    0.032752007060443594    0.03307665662164689    0.03381458517196116    0.034981256029585225    
  0.03684796150909144    0.039485114825433563    0.043360668617938046    0.049005358376816736    0.05681004789568974    
  0.06786957616538328    0.08301700895964967    0.10396891856202782    0.13243366055667266    0.17102769055347414    
  0.22504980147109258    0.29926464295419636    0.40168629274586637    0.5419261490677064    0.7361576953617566    
  1.0066366030479206    1.3613773389630521    1.8046988793568126    2.337211994849605    2.9161730476293    
  3.4459939084090783    3.8167735989188505    3.9494809016038745    3.8167735989188514    3.4459939084090783    