#     DFTpy    
  CRYSTAL 
    
  PRIMVEC    
  -1.755    1.755    1.755    
  1.755    -1.755    1.755    
  1.755    1.755    -1.755    
  PRIMCOORD    
  1    1    
  Li    0.0    0.0    0.0    
  BEGIN_BLOCK_DATAGRID_3D    
  3d_datagrid_density    
  BEGIN_DATAGRID_3D#0    
  37    37    37    
  0.0    0.0    0.0    
  -1.75499999887519    1.75499999887519    1.75499999887519    
  1.75499999887519    -1.75499999887519    1.75499999887519    
  1.75499999887519    1.75499999887519    -1.75499999887519    
  18.86856112278506    16.93345061581762    12.22812878483441    7.1057476353126505    3.3669081700247547    
  1.378578292836698    0.5611460703023884    0.26207503653696457    0.14113147711694968    0.0871110898966066    
  0.0637819859872911    0.054080889385380596    0.05034783520969323    0.04912284131742784    0.048940777667871214    
  0.049108261445783764    0.049325571211722534    0.04948226675954364    0.04953139112213379    0.04948226675954372    
  0.049325571211722534    0.04910826144578384    0.048940777667870285    0.04912284131742834    0.05034783520969323    
  0.054080889385380804    0.06378198598729083    0.08711108989660694    0.14113147711694968    0.2620750365369641    
  0.5611460703023882    1.3785782928366979    3.3669081700247543    7.1057476353126505    12.228128784834409    
  16.93345061581762    18.86856112278506    16.933450615817623    16.33286827309679    12.679126242790629    
  7.918766512918013    4.011750922366871    1.7188981312480915    0.699421752049248    0.3161010543372301    
  0.16535297800114104    0.09818174237481087    0.06857138511227012    0.056064738193850376    0.05108200216133388    
  0.04933507681636989    0.04893382965081932    0.049042844612500754    0.04926150203233619    0.049448784351945295    
  0.0495350188601427    0.0495184933002933    0.04939613814160634    0.04918841489287885    0.04898357690199215    
  0.048978887814058944    0.04970760424232335    0.05223523915087329    0.05908272515613251    0.07580915052996205    
  0.11495764461057391    0.2024100843487173    0.4047186231820429    0.9393698173720185    2.3106753793112986    
  5.143330125450546    9.489215177906367    14.133675747485796    16.933450615817623    12.228128784834407    
  12.679126242790625    10.578517942739742    7.105738208480708    3.8729292831275037    1.775205353526496    
  0.7558859799801826    0.34638267994943267    0.18122424233958812    0.10641566124857044    0.07247600712137271    
  0.05781272753120266    0.05178379516318232    0.049567732858274184    0.04895832700478815    0.04899458245104024    
  0.04920618727344525    0.04941247860396225    0.049531438592966645    0.04954898831438915    0.049463934359277546    
  0.04928329253797185    0.04906194243200728    0.04893002368989652    0.049245973527139976    0.050771093508152745    
  0.05515697968257857    0.06615058066990995    0.09190947268033482    0.14973244320784665    0.27533709041563503    
  0.5745140800035067    1.3368155939079236    3.034263129640268    5.935431501736542    9.489215177906367    
  12.228128784834407    7.1057476353126505    7.918766512918013    7.105738208480708    5.143315280429533    
  3.0342491278809884    1.5136034987926923    0.6994178898956948    0.3399855444223189    0.18368261579882325    
  0.10947677922948558    0.07450919764687029    0.05891513368530215    0.05229632427420408    0.049759482628299385    
  0.048990435303546784    0.048964156068986464    0.04916382626653255    0.04938293234927714    0.04952374209011064    
  0.0495745628565382    0.04952534095765958    0.04938299944767376    0.0491660443150038    0.04896675670833407    
  0.04899311371284594    0.04976316053306126    0.0522963076700893    0.05891452141752338    0.07450884392743094    
  0.10947613174033667    0.18368384207193592    0.3399868341704907    0.6994225629421331    1.513613775339086    
  3.0342631296402685    5.143330125450546    7.1057476353126505    3.3669081700247547    4.011750922366872    
  3.8729292831275037    3.0342491278809884    1.9573844619323728    1.0840292260967064    0.5611454127130032    
  0.2998113605576016    0.1718877975677274    0.10642356984695367    0.07409438381147453    0.059083838778917076    
  0.05248461256983982    0.049862542078375816    0.049012607228572536    0.048945047285015204    0.04912787141149109    
  0.049355184252174215    0.049517952631051576    0.049598945143862906    0.04958283797915739    0.0494768260017834    
  0.04928638596985689    0.049060188342815954    0.04892605650669808    0.049177982946020646    0.050467760684215525    
  0.0540812451926525    0.06283892503524723    0.08231689760319566    0.12354543955953398    0.2053278936428006    
  0.3666931876097419    0.699422562942133    1.3368155939079236    2.3106753793112986    3.3669081700247547    
  1.3785782928366972    1.718898131248091    1.7752053535264956    1.513603498792692    1.0840292260967062    
  0.6818671716765965    0.4047215922488229    0.24203359807876604    0.14974697173836365    0.09819492671191071    
  0.07134876982886433    0.05827553535500363    0.0522951176375328    0.04983837005661234    0.049010110986754084    
  0.048934631001482584    0.04910813756356279    0.04933325025932567    0.049511153297925575    0.04961246447675844    
  0.04962890194069782    0.049554754826957634    0.04940818585110065    0.04918889684934548    0.04898701150604712    
  0.0489389184674729    0.04944391857140749    0.05121124544427646    0.055714379747307016    0.0658762345063102    
  0.08711478206665799    0.12897559979714038    0.2053278936428005    0.3399868341704905    0.5745140800035063    
  0.9393698173720177    1.3785782928366972    0.5611460703023881    0.699421752049248    0.7558859799801824    
  0.6994178898956948    0.5611454127130033    0.4047215922488229    0.27534768870513954    0.1836971396328133    
  0.12355835161719267    0.08712764966236271    0.06703216896637401    0.05670046036431175    0.051778359773610526    
  0.04968902679377009    0.04897642589451717    0.04892334797819863    0.049099677516113056    0.04932326248151132    
  0.0495080239468858    0.04961943885973455    0.049664159130915174    0.0496226559137361    0.04951526928329952    
  0.04933167867769578    0.04911092059923487    0.048935998633950734    0.04899107341784888    0.04970059533586898    
  0.051782924677547464    0.05669891888455526    0.06702361823349    0.08711478206665803    0.123545439559534    
  0.18368384207193586    0.27533709041563503    0.40471862318204255    0.5611460703023881    0.2620750365369641    
  0.3161010543372301    0.3463826799494323    0.3399855444223188    0.2998113605576015    0.24203359807876593    
  0.18369713963281314    0.13483961287705462    0.09904973076231072    0.07582673898860086    0.06217481665323274    
  0.054743797212429814    0.05106727655155696    0.04946126957910889    0.04892867758391252    0.04891995532250157    
  0.049096624078227194    0.0493161403437334    0.04950208262019693    0.049623756823876715    0.049686523684556186    
  0.049678127957599724    0.0496014958875385    0.04946361998153159    0.049265463945230625    0.049050994611433536    
  0.048912556793440795    0.04904879826272747    0.04985922619004735    0.05200349172838258    0.056698918884555256    
  0.06587623450631028    0.08231689760319585    0.10947613174033684    0.14973244320784687    0.2024100843487174    
  0.2620750365369641    0.14113147711695018    0.16535297800114152    0.18122424233958825    0.18368261579882345    
  0.17188779756772748    0.14974697173836377    0.12355835161719267    0.09904973076231086    0.07965283064922477    
  0.06616622691166485    0.05766942490681208    0.05280597312316461    0.050318746763807994    0.04921232881529617    
  0.04887893458342827    0.048927339148784534    0.049108324212019196    0.04932127796241246    0.04949752866810962    
  0.04962371892820816    0.04969617240302542    0.049710093807530546    0.049669437816662956    0.0495687398326482    
  0.049420245583262974    0.049218433970678765    0.04901774914531627    0.04890749449053381    0.04907143200066332    
  0.04985922619004734    0.05178292467754744    0.05571437974730717    0.06283892503524743    0.07450884392743123    
  0.09190947268033539    0.11495764461057438    0.14113147711695018    0.08711108989660711    0.09818174237481164    
  0.10641566124857053    0.10947677922948582    0.10642356984695364    0.09819492671191082    0.08712764966236272    
  0.07582673898860094    0.06616622691166484    0.05892625911527332    0.05407463754045708    0.05118615078802536    
  0.04966424576087795    0.04900077220949828    0.04885249551997571    0.048950968905397844    0.04913461601356236    
  0.04933594511251244    0.049498221457845715    0.049616749638346655    0.04969657262440377    0.049723659833855745    
  0.049713582821048166    0.0496501703684597    0.04954038836713515    0.049388061830311684    0.0491924578545798    
  0.04900869045403087    0.04890749449053387    0.04904879826272747    0.049700595335868986    0.051211245444276535    
  0.054081245192652616    0.058914521417523735    0.06615058066991043    0.07580915052996226    0.08711108989660711    
  0.06378198598729191    0.06857138511227114    0.07247600712137324    0.07450919764687089    0.0740943838114747    
  0.07134876982886454    0.06703216896637405    0.0621748166532328    0.05766942490681201    0.05407463754045706    
  0.05156095816956076    0.05001143686732996    0.049185722768314316    0.048867762168326376    0.04886089552110926    
  0.04899377486315555    0.04917628366713395    0.04935620277651308    0.04950500918285394    0.049614372466251694    
  0.04969149240770249    0.04973294832258311    0.04973548384190298    0.0497030950613225    0.04963167575233208    
  0.049522216446145836    0.049373526764779255    0.049192457854579694    0.04901774914531621    0.04891255679344069    
  0.04899107341784883    0.04944391857140761    0.050467760684216115    0.05229630767009017    0.05515697968257957    
  0.05908272515613381    0.06378198598729191    0.054080889385380804    0.05606473819385006    0.05781272753120239    
  0.05891513368530234    0.059083838778917035    0.05827553535500369    0.05670046036431169    0.05474379721242978    
  0.05280597312316446    0.05118615078802532    0.05001143686732991    0.04927229242084747    0.048910338696225804    
  0.04882992573874513    0.04890643945238458    0.04905416097410663    0.04923036297823735    0.04938596064722209    
  0.04951415696713022    0.04961607724526371    0.049681671755089016    0.049728109219195904    0.049745969290702866    
  0.04973089092763038    0.04969787612909967    0.04962871982334982    0.04952221644614595    0.049388061830311726    
  0.04921843397067884    0.04905099461143351    0.048935998633950754    0.04893891846747291    0.04917798294602083    
  0.04976316053306132    0.05077109350815276    0.05223523915087242    0.054080889385380804    0.05034783520969273    
  0.05108200216133385    0.051783795163181955    0.05229632427420416    0.052484612569839724    0.052295117637532834    
  0.05177835977361056    0.05106727655155702    0.05031874676380795    0.049664245760877974    0.0491857227683143    
  0.04891033869622588    0.0488224527596659    0.04886863590087759    0.04898488879870302    0.04913589621009369    
  0.04929106644919529    0.04942045304053985    0.04952596865591914    0.04961171186926791    0.049672223969588446    
  0.04971525380223264    0.04974256210880588    0.049745906739942496    0.04973151358837354    0.049697876129099657    
  0.04963167575233211    0.04954038836713519    0.049420245583262995    0.04926546394523062    0.049110920599234914    
  0.048987011506047104    0.04892605650669815    0.04899311371284585    0.04924597352714009    0.049707604242323664    
  0.05034783520969273    0.049122841317428584    0.04933507681637067    0.04956773285827444    0.049759482628299836    
  0.049862542078375885    0.04983837005661236    0.04968902679377015    0.04946126957910896    0.04921232881529615    
  0.04900077220949832    0.04886776216832631    0.04882992573874514    0.048868635900877505    0.04895965300708447    
  0.04908601730698953    0.04922503422856439    0.049348942279950826    0.04945273791511624    0.049544725262310484    
  0.04961243199618553    0.04966319226159888    0.04970465609871061    0.049730171547302755    0.049744918011166955    
  0.04974590673994243    0.049730890927630354    0.04970309506132256    0.04965017036845978    0.04956873983264825    
  0.04946361998153161    0.049331678677695834    0.04918889684934549    0.049060188342816044    0.04896675670833412    
  0.04893002368989656    0.04897888781405913    0.049122841317428584    0.04894077766787117    0.04893382965081979    
  0.04895832700478827    0.048990435303547006    0.04901260722857258    0.04901011098675402    0.04897642589451725    
  0.04892867758391265    0.04887893458342829    0.04885249551997579    0.048860895521109254    0.04890643945238468    
  0.04898488879870309    0.049086017306989624    0.049201884812138795    0.04931130044740454    0.04940539600157278    
  0.049489170280023496    0.049561863210248094    0.04961422262330133    0.04965434956533866    0.04968707518400108    
  0.049711369212978966    0.049730171547302734    0.049742562108805774    0.04974596929070279    0.04973548384190293    
  0.049713582821048104    0.04966943781666292    0.049601495887538455    0.049515269283299544    0.04940818585110069    
  0.04928638596985689    0.04916604431500413    0.049061942432007684    0.04898357690199305    0.04894077766787117    
  0.04910826144578385    0.04904284461250069    0.04899458245104019    0.0489641560689866    0.04894504728501531    
  0.04893463100148269    0.048923347978198806    0.04891995532250173    0.04892733914878456    0.0489509689053979    
  0.0489937748631555    0.049054160974106704    0.04913589621009382    0.04922503422856456    0.04931130044740471    
  0.049388948955034574    0.04946081121153882    0.049525443384030934    0.04957479078274281    0.04961045778388779    
  0.04964433728403435    0.04967031116426511    0.0496870751840011    0.049704656098710644    0.049715253802232635    
  0.04972810921919591    0.04973294832258315    0.04972365983385573    0.049710093807530525    0.04967812795759968    
  0.0496226559137361    0.04955475482695761    0.049476826001783436    0.04938299944767365    0.049283292537971674    
  0.049188414892878785    0.04910826144578385    0.049325571211722756    0.049261502032336625    0.04920618727344533    
  0.04916382626653287    0.049127871411491254    0.049108137563562894    0.04909967751611309    0.0490966240782273    
  0.04910832421201924    0.04913461601356241    0.04917628366713395    0.04923036297823742    0.049291066449195384    
  0.04934894227995091    0.04940539600157287    0.04946081121153871    0.04951312817649272    0.049553903221650125    
  0.0495841751911847    0.049611907963831275    0.0496304613336999    0.04964433728403435    0.049654349565338755    
  0.049663192261599015    0.04967222396958857    0.049681671755089155    0.04969149240770266    0.04969657262440389    
  0.049696172403025554    0.049686523684556304    0.04966415913091525    0.04962890194069788    0.04958283797915742    
  0.049525340957659605    0.049463934359277685    0.049396138141606545    0.049325571211722756    0.049482266759543224    
  0.04944878435194497    0.04941247860396179    0.04938293234927701    0.049355184252174195    0.04933325025932573    
  0.04932326248151135    0.04931614034373346    0.04932127796241249    0.049335945112512505    0.049356202776513064    
  0.0493859606472221    0.04942045304053987    0.04945273791511626    0.049489170280023545    0.04952544338403079    
  0.04955390322165012    0.04957804017290121    0.049593917350622824    0.04960719424058535    0.04961190796383135    
  0.04961045778388775    0.04961422262330134    0.049612431996185556    0.04961171186926797    0.049616077245263776    
  0.049614372466251826    0.04961674963834674    0.04962371892820827    0.04962375682387681    0.04961943885973466    
  0.04961246447675853    0.04959894514386292    0.049574562856538246    0.04954898831438889    0.04951849330029308    
  0.049482266759543224    0.04953139112213376    0.04953501886014244    0.049531438592966166    0.0495237420901105    
  0.049517952631051444    0.04951115329792552    0.049508023946885735    0.049502082620196924    0.04949752866810963    
  0.049498221457845756    0.04950500918285394    0.04951415696713022    0.049525968655919135    0.04954472526231045    
  0.049561863210248136    0.04957479078274268    0.049584175191184666    0.04959391735062275    0.04960030609748296    
  0.04959391735062269    0.049584175191184666    0.04957479078274268    0.04956186321024802    0.04954472526231041    
  0.049525968655919135    0.04951415696713021    0.04950500918285401    0.04949822145784573    0.049497528668109636    
  0.049502082620196904    0.04950802394688577    0.049511153297925506    0.04951795263105146    0.04952374209011061    
  0.04953143859296641    0.04953501886014274    0.04953139112213376    0.04948226675954342    0.049518493300293176    
  0.04954898831438855    0.049574562856538294    0.04959894514386293    0.04961246447675855    0.04961943885973466    
  0.04962375682387683    0.04962371892820826    0.04961674963834676    0.04961437246625178    0.04961607724526381    
  0.04961171186926797    0.04961243199618558    0.04961422262330145    0.049610457783887764    0.04961190796383135    
  0.04960719424058539    0.04959391735062282    0.04957804017290115    0.04955390322165012    0.049525443384030816    
  0.049489170280023434    0.049452737915116174    0.04942045304053987    0.049385960647222116    0.04935620277651315    
  0.049335945112512464    0.0493212779624125    0.04931614034373344    0.0493232624815114    0.049333250259325785    
  0.049355184252174264    0.04938293234927726    0.0494124786039623    0.04944878435194522    0.04948226675954342    
  0.049325571211722236    0.049396138141606254    0.049463934359277074    0.04952534095765952    0.04958283797915743    
  0.04962890194069789    0.0496641591309153    0.04968652368455632    0.049696172403025554    0.049696572624403905    
  0.04969149240770261    0.04968167175508919    0.04967222396958857    0.04966319226159901    0.049654349565338846    
  0.04964433728403435    0.0496304613336999    0.049611907963831296    0.04958417519118469    0.04955390322165005    
  0.04951312817649272    0.04946081121153879    0.049405396001572816    0.04934894227995083    0.04929106644919538    
  0.04923036297823746    0.04917628366713405    0.0491346160135624    0.04910832421201922    0.049096624078227194    
  0.0490996775161131    0.049108137563562825    0.04912787141149111    0.0491638262665325    0.04920618727344534    
  0.049261502032336056    0.049325571211722236    0.0491082614457834    0.04918841489287833    0.04928329253797114    
  0.049382999447673444    0.04947682600178331    0.049554754826957544    0.04962265591373613    0.04967812795759974    
  0.049710093807530525    0.04972365983385573    0.049732948322583105    0.049728109219195966    0.049715253802232635    
  0.049704656098710616    0.04968707518400115    0.049670311164265075    0.04964433728403435    0.0496104577838878    
  0.0495747907827428    0.049525443384030844    0.04946081121153883    0.04938894895503469    0.049311300447404734    
  0.04922503422856448    0.049135896210093816    0.04905416097410677    0.04899377486315562    0.04895096890539787    
  0.048927339148784554    0.048919955322501624    0.04892334797819871    0.04893463100148261    0.048945047285015086    
  0.04896415606898635    0.04899458245103989    0.04904284461250032    0.0491082614457834    0.04894077766787057    
  0.048983576901992634    0.049061942432007406    0.04916604431500384    0.049286385969856905    0.049408185851100635    
  0.049515269283299565    0.04960149588753853    0.04966943781666292    0.04971358282104808    0.04973548384190288    
  0.04974596929070286    0.049742562108805774    0.04973017154730269    0.04971136921297896    0.04968707518400102    
  0.04965434956533866    0.04961422262330132    0.04956186321024809    0.04948917028002341    0.04940539600157278    
  0.049311300447404685    0.04920188481213888    0.04908601730698955    0.04898488879870309    0.04890643945238474    
  0.04886089552110938    0.04885249551997573    0.04887893458342829    0.04892867758391258    0.04897642589451717    
  0.049010110986754125    0.0490126072285724    0.04899043530354632    0.04895832700478755    0.048933829650818925    
  0.04894077766787057    0.04912284131742959    0.04897888781405922    0.04893002368989655    0.04896675670833416    
  0.04906018834281613    0.04918889684934553    0.049331678677695834    0.04946361998153169    0.049568739832648256    
  0.049650170368459735    0.0497030950613225    0.04973089092763045    0.04974590673994243    0.0497449180111669    
  0.04973017154730273    0.04970465609871053    0.04966319226159888    0.049612431996185535    0.049544725262310484    
  0.04945273791511618    0.04934894227995083    0.04922503422856452    0.049086017306989665    0.048959653007084415    
  0.048868635900877505    0.04882992573874517    0.048867762168326404    0.049000772209498236    0.04921232881529615    
  0.04946126957910892    0.0496890267937701    0.04983837005661249    0.04986254207837595    0.0497594826282999    
  0.04956773285827518    0.04933507681637075    0.04912284131742959    0.05034783520969273    0.049707604242323344    
  0.04924597352713978    0.0489931137128459    0.048926056506698117    0.048987011506047076    0.04911092059923484    
  0.04926546394523069    0.049420245583262995    0.049540388367135126    0.04963167575233204    0.04969787612909976    
  0.04973151358837354    0.04974590673994245    0.049742562108805795    0.049715253802232566    0.049672223969588446    
  0.04961171186926791    0.04952596865591912    0.04942045304053979    0.04929106644919529    0.0491358962100938    
  0.0489848887987032    0.04886863590087754    0.0488224527596659    0.04891033869622588    0.04918572276831437    
  0.0496642457608779    0.05031874676380795    0.051067276551557024    0.051778359773610484    0.052295117637532834    
  0.05248461256983974    0.05229632427420396    0.05178379516318248    0.05108200216133424    0.05034783520969273    
  0.05408088938538065    0.05223523915087341    0.050771093508152634    0.04976316053306131    0.049177982946020674    
  0.04893891846747291    0.04893599863395066    0.04905099461143358    0.049218433970678835    0.04938806183031168    
  0.04952221644614586    0.049628719823349925    0.04969787612909966    0.04973089092763034    0.04974596929070279    
  0.049728109219195835    0.049681671755089016    0.04961607724526373    0.0495141569671302    0.049385960647222046    
  0.04923036297823736    0.049054160974106704    0.04890643945238473    0.048829925738745096    0.048910338696225804    
  0.04927229242084742    0.050011436867329936    0.05118615078802522    0.05280597312316447    0.05474379721242984    
  0.056700460364311644    0.05827553535500366    0.05908383877891707    0.05891513368530214    0.05781272753120279    
  0.0560647381938504    0.05408088938538065    0.06378198598729079    0.05908272515613296    0.05515697968257902    
  0.05229630767008962    0.05046776068421564    0.04944391857140743    0.0489910734178487    0.04891255679344073    
  0.049017749145316196    0.04919245785457962    0.04937352676477914    0.04952221644614595    0.04963167575233208    
  0.049703095061322505    0.0497354838419029    0.049732948322583036    0.049691492407702494    0.049614372466251735    
  0.04950500918285394    0.04935620277651305    0.04917628366713395    0.048993774863155586    0.04886089552110941    
  0.04886776216832635    0.049185722768314316    0.05001143686732988    0.05156095816956078    0.054074637540456966    
  0.05766942490681201    0.06217481665323279    0.06703216896637403    0.0713487698288644    0.07409438381147455    
  0.07450919764687043    0.07247600712137282    0.06857138511227007    0.06378198598729079    0.08711108989660629    
  0.0758091505299615    0.06615058066990942    0.05891452141752317    0.05408124519265233    0.05121124544427647    
  0.04970059533586886    0.049048798262727504    0.04890749449053385    0.0490086904540308    0.04919245785457968    
  0.04938806183031177    0.04954038836713515    0.04965017036845972    0.0497135828210481    0.049723659833855655    
  0.04969657262440377    0.04961674963834672    0.04949822145784571    0.04933594511251244    0.04913461601356235    
  0.04895096890539786    0.04885249551997581    0.049000772209498236    0.04966424576087795    0.051186150788025284    
  0.05407463754045711    0.05892625911527326    0.06616622691166484    0.0758267389886009    0.08712764966236265    
  0.09819492671191075    0.10642356984695353    0.10947677922948545    0.10641566124857044    0.09818174237481071    
  0.08711108989660629    0.14113147711694932    0.11495764461057398    0.09190947268033466    0.0745088439274308    
  0.06283892503524727    0.055714379747307065    0.05178292467754731    0.04985922619004743    0.049071432000663315    
  0.04890749449053375    0.04901774914531616    0.04921843397067883    0.049420245583262974    0.04956873983264823    
  0.04966943781666292    0.049710093807530435    0.04969617240302543    0.04962371892820824    0.049497528668109594    
  0.04932127796241248    0.049108324212019196    0.04892733914878454    0.04887893458342833    0.04921232881529612    
  0.050318746763807994    0.052805973123164526    0.05766942490681214    0.06616622691166486    0.07965283064922477    
  0.09904973076231076    0.1235583516171926    0.14974697173836368    0.17188779756772726    0.18368261579882303    
  0.18122424233958778    0.1653529780011405    0.14113147711694932    0.2620750365369645    0.202410084348718    
  0.1497324432078471    0.10947613174033707    0.08231689760319584    0.06587623450631035    0.056698918884555215    
  0.05200349172838268    0.049859226190047366    0.04904879826272744    0.048912556793440726    0.04905099461143356    
  0.04926546394523062    0.04946361998153161    0.049601495887538496    0.049678127957599634    0.04968652368455619    
  0.04962375682387682    0.0495020826201969    0.049316140343733404    0.049096624078227194    0.04891995532250159    
  0.04892867758391256    0.04946126957910884    0.05106727655155696    0.05474379721242978    0.06217481665323282    
  0.07582673898860087    0.09904973076231072    0.1348396128770545    0.18369713963281314    0.24203359807876587    
  0.2998113605576016    0.3399855444223188    0.34638267994943267    0.3161010543372301    0.2620750365369645    
  0.5611460703023881    0.404718623182043    0.27533709041563487    0.183683842071936    0.12354543955953398    
  0.08711478206665815    0.06702361823348994    0.05669891888455538    0.051782924677547464    0.04970059533586893    
  0.04899107341784886    0.048935998633950734    0.04911092059923487    0.049331678677695764    0.04951526928329953    
  0.04962265591373602    0.049664159130915174    0.04961943885973467    0.04950802394688575    0.04932326248151135    
  0.049099677516113056    0.04892334797819866    0.04897642589451719    0.04968902679377004    0.051778359773610526    
  0.05670046036431173    0.06703216896637414    0.08712764966236276    0.12355835161719267    0.18369713963281314    
  0.2753476887051396    0.4047215922488229    0.5611454127130033    0.6994178898956948    0.7558859799801823    
  0.6994217520492475    0.5611460703023881    1.3785782928366972    0.9393698173720181    0.5745140800035062    
  0.3399868341704906    0.20532789364280055    0.12897559979714052    0.087114782066658    0.06587623450631035    
  0.055714379747307016    0.051211245444276375    0.04944391857140752    0.04893891846747289    0.04898701150604712    
  0.04918889684934542    0.04940818585110069    0.04955475482695757    0.04962890194069782    0.04961246447675859    
  0.04951115329792554    0.049333250259325744    0.04910813756356279    0.0489346310014826    0.049010110986754056    
  0.049838370056612326    0.0522951176375328    0.05827553535500361    0.07134876982886444    0.09819492671191074    
  0.14974697173836365    0.24203359807876593    0.4047215922488229    0.6818671716765963    1.0840292260967062    
  1.513603498792692    1.7752053535264953    1.718898131248091    1.3785782928366972    3.3669081700247547    
  2.3106753793112986    1.3368155939079231    0.6994225629421332    0.3666931876097419    0.20532789364280066    
  0.12354543955953395    0.0823168976031958    0.06283892503524723    0.05408124519265233    0.05046776068421562    
  0.049177982946020604    0.04892605650669808    0.049060188342815864    0.049286385969857    0.04947682600178336    
  0.049582837979157385    0.049598945143863066    0.049517952631051555    0.04935518425217435    0.049127871411491095    
  0.04894504728501521    0.04901260722857238    0.0498625420783759    0.05248461256983982    0.05908383877891709    
  0.07409438381147464    0.1064235698469537    0.1718877975677274    0.2998113605576015    0.5611454127130032    
  1.0840292260967062    1.9573844619323728    3.0342491278809884    3.8729292831275037    4.01175092236687    
  3.3669081700247547    7.1057476353126505    5.143330125450546    3.034263129640269    1.513613775339086    
  0.699422562942133    0.33998683417049086    0.18368384207193592    0.10947613174033688    0.07450884392743093    
  0.058914521417523076    0.05229630767008948    0.049763160533061165    0.04899311371284594    0.04896675670833392    
  0.049166044315004064    0.049382999447673714    0.04952534095765958    0.049574562856538364    0.04952374209011065    
  0.04938293234927734    0.04916382626653255    0.048964156068986436    0.048990435303546395    0.0497594826282996    