#     DFTpy    
  CRYSTAL 
    
  PRIMVEC    
  -1.755    1.755    1.755    
  1.755    -1.755    1.755    
  1.755    1.755    -1.755    
  PRIMCOORD    
  1    1    
  Li    0.0    0.0    0.0    
  BEGIN_BLOCK_DATAGRID_3D    
  3d_datagrid_density    
  BEGIN_DATAGRID_3D#0    
  37    37    37    
  0.0    0.0    0.0    
  -1.75499999887519    1.75499999887519    1.75499999887519    
  1.75499999887519    -1.75499999887519    1.75499999887519    
  1.75499999887519    1.75499999887519    -1.75499999887519    
  0.05212123035262137    0.052834267648187404    0.054611223914004595    0.05656822652444855    0.057801480819162726    
  0.05786791080523682    0.056911780783684585    0.05542448665080813    0.05390782063486236    0.052663836393855315    
  0.051747284051858924    0.051030852166500336    0.05033288847745781    0.04954600986309513    0.048693939598286856    
  0.04789114642190473    0.04725770106495753    0.04686407500501924    0.04673215391693918    0.04686407500501924    
  0.04725770106495753    0.04789114642190472    0.04869393959828685    0.049546009863095125    0.05033288847745781    
  0.05103085216650033    0.05174728405185892    0.052663836393855315    0.05390782063486236    0.05542448665080812    
  0.05691178078368456    0.057867910805236844    0.057801480819162705    0.056568226524448574    0.054611223914004615    
  0.05283426764818743    0.05212123035262137    0.05283426764818743    0.05305765941164947    0.05443803877737304    
  0.05626121775304681    0.05762763620521132    0.05795525307945506    0.05722369748622941    0.05583586877889629    
  0.05429758126919447    0.05296786351497059    0.05196716039595212    0.051211259660270826    0.050522382053509104    
  0.04976280459402758    0.048917869473292866    0.048082599566756784    0.047382765200342965    0.04690597186858651    
  0.04668674382936275    0.04673074228632743    0.04703743908367785    0.04759494706178369    0.04835260234513147    
  0.04920555189580461    0.05002862206580479    0.05075633609809834    0.05144779534005871    0.052267316853263086    
  0.05337663183658773    0.054801221001027    0.056339774583912934    0.05756644875872907    0.057974870830838146    
  0.0572704042481439    0.055662440327590476    0.05388485232142042    0.05283426764818743    0.054611223914004615    
  0.05443803877737304    0.05524194227482953    0.05656266364518516    0.05766015464525743    0.05795288360113355    
  0.057308460433548265    0.05600935202494785    0.05450040471491987    0.05314247179793327    0.05209140527242506    
  0.05130028645453503    0.05060741605733408    0.04986283681228303    0.04902420393921231    0.04816541107093098    
  0.047409794690421204    0.04685640126048541    0.04655247917302473    0.04650961463333224    0.046728415112726025    
  0.047203048558994695    0.04790115441029494    0.048740590943225054    0.04959955575424825    0.05037818953471106    
  0.051076170275077486    0.051814563572698855    0.05276534179811202    0.054026669846911804    0.05551571104485166    
  0.056933389378557075    0.057840752175626904    0.05786915809442397    0.056993424649338084    0.055662440327590476    
  0.054611223914004615    0.05656822652444855    0.05626121775304679    0.056562663645185134    0.057259773587865145    
  0.05785429576230975    0.057883398745462444    0.05718625804322246    0.05593971188176321    0.054492975158940964    
  0.05316240964546174    0.05210524121555834    0.051297404174699635    0.050596997085908    0.04985621334345661    
  0.04901857423319025    0.04814108145676331    0.04733993265031217    0.046718847095364655    0.04633505753531728    
  0.04620770046678796    0.04633975184182887    0.046728111223089674    0.047353597437300055    0.04815895446785488    
  0.04904031646829113    0.0498811668245085    0.05062414411062973    0.05132552548371749    0.05213316897433569    
  0.053189227751898605    0.05451809488937666    0.05596281227773282    0.05720710226180064    0.057901595504762315    
  0.05786915809442397    0.0572704042481439    0.05656822652444855    0.057801480819162684    0.05762763620521132    
  0.05766015464525743    0.05785429576230975    0.0579470375076491    0.057648180917443934    0.05683801031881207    
  0.05562845763858894    0.054273075639539994    0.0530200100002402    0.05200203953913402    0.051202563592472855    
  0.05049819003128184    0.04975307118708686    0.048909442208723314    0.04801486276808993    0.04717738306715268    
  0.04649941506355547    0.0460432972719259    0.04583540936703638    0.04588325291326649    0.04618540124748655    
  0.046729567707974096    0.047479163328493446    0.048357228023656815    0.049252921378559675    0.05007002303119297    
  0.05079355855921797    0.0515142486466191    0.052375695414792235    0.05347487457151864    0.054780160218599334    
  0.05611271762332957    0.05720710226180067    0.057840752175626904    0.057974870830838125    0.057801480819162684    
  0.05786791080523682    0.05795525307945508    0.05795288360113355    0.057883398745462465    0.05764818091744396    
  0.057114352027712006    0.056232166260284294    0.05508746536558198    0.05385931006874303    0.052726746925042464    
  0.051786274877092    0.05101833115778576    0.050315794071412914    0.04956106072518434    0.04870516604942601    
  0.04779381867223108    0.046928347163340156    0.046205841490154796    0.04568822275192151    0.045406480699624906    
  0.045374106753779536    0.04559274347211732    0.04605269178864257    0.04672976134829743    0.04757352415519645    
  0.04849658134479004    0.04939216212582344    0.05018861492364443    0.050902293113245796    0.05163507876533077    
  0.05250775798836175    0.05357555230936343    0.054780160218599334    0.05596281227773282    0.056933389378557096    
  0.057566448758729044    0.05786791080523682    0.056911780783684585    0.05722369748622941    0.057308460433548265    
  0.05718625804322246    0.05683801031881207    0.05623216626028431    0.05537819643294424    0.05435562360114343    
  0.053292869970582066    0.05231187332884159    0.0514730999554701    0.05075048855031292    0.05005267235037377    
  0.049284603169208775    0.04841273048023913    0.04748612668821892    0.046601085631165336    0.045847393054904595    
  0.045282164375737816    0.04493696857737788    0.044830670573680766    0.04497022447100613    0.04534791748648888    
  0.045944273221379936    0.04672708072036382    0.047638259655269126    0.048586784656314816    0.04947525789587607    
  0.05025395752868246    0.050956188211511655    0.05167696236198014    0.05250775798836176    0.05347487457151864    
  0.05451809488937666    0.055515711044851694    0.05633977458391296    0.056911780783684585    0.055424486650808104    
  0.05583586877889632    0.056009352024947875    0.05593971188176321    0.05562845763858894    0.055087465365582    
  0.05435562360114343    0.05350674656510493    0.05263396463426982    0.05181602698267799    0.05108385829939582    
  0.05040664475234958    0.049710382224058984    0.04892577449474528    0.048038013042931024    0.04710117231767351    
  0.04620645368590838    0.04543537444765435    0.044838115446651075    0.044443337505662706    0.04427261647641238    
  0.04433901767327686    0.044638911707504635    0.04515424968155343    0.045860713209080535    0.04672313040872706    
  0.047679066263071695    0.0486379314158777    0.04951433289884636    0.05027492148703341    0.05095618821151166    
  0.051635078765330786    0.05237569541479225    0.05318922775189862    0.054026669846911804    0.054801221001027    
  0.055424486650808104    0.05390782063486236    0.054297581269194456    0.05450040471491987    0.05449297515894095    
  0.054273075639540015    0.05385931006874303    0.053292869970582066    0.05263396463426981    0.05194701200658666    
  0.05127831485915157    0.05063723182386786    0.049992313569163935    0.04928913230121633    0.04848577705043757    
  0.04758663383005652    0.046649255437952855    0.04575735862524468    0.04498298859007037    0.044369320274071006    
  0.04394082423270667    0.043718660574789486    0.04372019723137876    0.04394771499123033    0.044385934879819566    
  0.04501236051123325    0.04580289736720149    0.046720288497596636    0.04769938221165253    0.04865471101448846    
  0.04951433289884635    0.05025395752868245    0.050902293113245796    0.051514248646619104    0.05213316897433568    
  0.05276534179811203    0.05337663183658774    0.05390782063486236    0.052663836393855315    0.052967863514970605    
  0.053142471797933265    0.053162409645461726    0.05302001000024022    0.05272674692504248    0.0523118733288416    
  0.051816026982677975    0.05127831485915158    0.050720916738585385    0.05013948907599901    0.0495062860079503    
  0.048787207736091985    0.04796640779806476    0.04706512502844167    0.04614114173094624    0.04526722914195304    
  0.044504212612374326    0.043889075778552604    0.043443154834233146    0.043185478950378046    0.04313420154048678    
  0.04329659580442361    0.04366284247792671    0.04421244539432428    0.04492392223172252    0.04577297364091759    
  0.04671936745360359    0.04769938221165254    0.0486379314158777    0.04947525789587607    0.05018861492364443    
  0.050793558559218    0.0513255254837175    0.05181456357269886    0.05226731685326309    0.052663836393855315    
  0.05174728405185892    0.05196716039595213    0.05209140527242507    0.052105241215558346    0.05200203953913405    
  0.05178627487709202    0.0514730999554701    0.051083858299395817    0.05063723182386788    0.05013948907599902    
  0.04958043427248265    0.04893971693213155    0.048201801078393204    0.04737177243129137    0.046482562097602514    
  0.045588579418749615    0.04474923157920446    0.044012843718003666    0.04341088951091288    0.04296354931069811    
  0.04268803055399731    0.04260020830334289    0.04270878555147137    0.04300971999612114    0.043487712990834024    
  0.044122755805748384    0.04489353652274887    0.0457729736409176    0.04672028849759664    0.047679066263071695    
  0.04858678465631481    0.04939216212582344    0.05007002303119298    0.050624144110629724    0.0510761702750775    
  0.05144779534005871    0.05174728405185892    0.051030852166500336    0.051211259660270826    0.05130028645453504    
  0.05129740417469962    0.05120256359247287    0.05101833115778577    0.05075048855031292    0.05040664475234959    
  0.04999231356916394    0.04950628600795029    0.04893971693213155    0.04828223476587779    0.047533127643494606    
  0.046710575797264    0.045852108806816    0.045005594201831575    0.04421698650870847    0.04352260465305635    
  0.04294882288093373    0.04251583071942139    0.04224027662823134    0.042134728511500796    0.04220558697029376    
  0.042451703628299926    0.042864349530506336    0.043428169037436175    0.04412275580574838    0.04492392223172252    
  0.04580289736720151    0.04672313040872707    0.04763825965526912    0.04849658134479005    0.049252921378559696    
  0.0498811668245085    0.05037818953471106    0.050756336098098334    0.051030852166500336    0.0503328884774578    
  0.05052238205350909    0.05060741605733408    0.050596997085908015    0.050498190031281844    0.05031579407141291    
  0.050052672350373764    0.04971038222405898    0.04928913230121633    0.04878720773609199    0.0482018010783932    
  0.0475331276434946    0.046790855368390186    0.04599850868283553    0.04519148223917312    0.04440895085430745    
  0.04368537355323353    0.043047534720638304    0.04251725333653771    0.042114318489910346    0.041855344367240616    
  0.041750382046835274    0.041802151359742565    0.042008790946439195    0.0423658488579343    0.04286434953050633    
  0.043487712990834024    0.044212445394324285    0.04501236051123326    0.04586071320908053    0.04672708072036382    
  0.04757352415519645    0.0483572280236568    0.04904031646829114    0.04959955575424825    0.05002862206580478    
  0.0503328884774578    0.04954600986309513    0.04976280459402758    0.04986283681228303    0.04985621334345659    
  0.04975307118708686    0.049561060725184326    0.049284603169208775    0.04892577449474528    0.04848577705043758    
  0.04796640779806475    0.047371772431291356    0.046710575797263995    0.045998508682835525    0.045259191608637166    
  0.0445220035651952    0.04381699025730953    0.043169960095791084    0.04260145000309584    0.042129558352650316    
  0.0417721945900912    0.04154491194030109    0.04145630088019187    0.04150669364030599    0.041692152514155166    
  0.0420087909464392    0.042451703628299926    0.04300971999612114    0.04366284247792671    0.04438593487981958    
  0.04515424968155343    0.04594427322137993    0.04672976134829743    0.04747916332849346    0.04815895446785488    
  0.048740590943225054    0.04920555189580462    0.04954600986309513    0.048693939598286856    0.048917869473292866    
  0.04902420393921231    0.049018574233190254    0.048909442208723314    0.04870516604942602    0.048412730480239134    
  0.048038013042931024    0.047586633830056534    0.04706512502844167    0.0464825620976025    0.045852108806816005    
  0.04519148223917312    0.04452200356519521    0.043866684794668584    0.04324794074735465    0.042685675335579425    
  0.04219682005993831    0.04179657183419916    0.04149950455519014    0.04131817933442746    0.04125973130610215    
  0.04132413936210985    0.041506693640306014    0.04180215135974257    0.04220558697029376    0.04270878555147136    
  0.04329659580442362    0.04394771499123034    0.044638911707504635    0.045347917486488885    0.04605269178864258    
  0.04672956770797412    0.04735359743730006    0.04790115441029494    0.04835260234513149    0.048693939598286856    
  0.04789114642190473    0.04808259956675679    0.04816541107093098    0.04814108145676332    0.048014862768089944    
  0.047793818672231085    0.04748612668821893    0.0471011723176735    0.04664925543795287    0.04614114173094623    
  0.04558857941874961    0.045005594201831575    0.04440895085430745    0.04381699025730953    0.04324794074735465    
  0.04271903638433424    0.04224635228258788    0.04184454461006099    0.04152639880992033    0.04130254986127778    
  0.041181115609280367    0.041166753852812134    0.04125973130610215    0.04145630088019187    0.04175038204683528    
  0.0421347285115008    0.04260020830334289    0.043134201540486784    0.04372019723137878    0.04433901767327687    
  0.04497022447100613    0.04559274347211733    0.04618540124748656    0.04672811122308968    0.04720304855899471    
  0.04759494706178369    0.04789114642190473    0.04725770106495753    0.04738276520034296    0.0474097946904212    
  0.04733993265031216    0.04717738306715268    0.04692834716334015    0.04660108563116533    0.046206453685908366    
  0.04575735862524467    0.045267229141953025    0.044749231579204456    0.04421698650870846    0.04368537355323352    
  0.043169960095791084    0.042685675335579425    0.04224635228258788    0.041865227218095276    0.04155487480386836    
  0.0413258433486865    0.04118521972067962    0.04113659099351285    0.041181115609280367    0.041318179334427454    
  0.041544911940301084    0.04185534436724061    0.042240276628231335    0.0426880305539973    0.04318547895037804    
  0.043718660574789486    0.044272616476412376    0.04483067057368076    0.045374106753779536    0.04588325291326649    
  0.04633975184182887    0.04672841511272603    0.047037439083677836    0.04725770106495753    0.046864075005019254    
  0.0469059718685865    0.04685640126048541    0.04671884709536466    0.04649941506355548    0.0462058414901548    
  0.045847393054904595    0.04543537444765435    0.04498298859007037    0.04450421261237432    0.04401284371800365    
  0.04352260465305635    0.04304753472063832    0.04260145000309584    0.04219682005993832    0.04184454461006099    
  0.04155487480386836    0.041337802946727745    0.04120161247967691    0.04115072695259    0.04118521972067963    
  0.04130254986127777    0.041499504555190136    0.0417721945900912    0.04211431848991035    0.04251583071942138    
  0.04296354931069812    0.04344315483423315    0.04394082423270668    0.044443337505662706    0.044936968577377875    
  0.04540648069962491    0.04583540936703639    0.04620770046678797    0.046509614633332245    0.04673074228632744    
  0.046864075005019254    0.04673215391693919    0.046686743829362755    0.046552479173024734    0.04633505753531728    
  0.046043297271925916    0.045688222751921505    0.045282164375737816    0.04483811544665108    0.04436932027407102    
  0.043889075778552604    0.043410889510912876    0.04294882288093373    0.04251725333653771    0.04212955835265032    
  0.04179657183419916    0.04152639880992033    0.041325843348686504    0.04120161247967691    0.04115942356284241    
  0.041201612479676915    0.041325843348686504    0.041526398809920324    0.04179657183419915    0.042129558352650316    
  0.04251725333653771    0.04294882288093373    0.04341088951091288    0.043889075778552604    0.04436932027407102    
  0.04483811544665108    0.04528216437573781    0.04568822275192151    0.046043297271925916    0.04633505753531728    
  0.046552479173024734    0.04668674382936276    0.04673215391693919    0.04686407500501925    0.04673074228632744    
  0.046509614633332245    0.04620770046678797    0.04583540936703639    0.04540648069962491    0.04493696857737788    
  0.04444333750566271    0.04394082423270668    0.043443154834233146    0.04296354931069811    0.04251583071942138    
  0.042114318489910346    0.041772194590091204    0.04149950455519016    0.041302549861277786    0.04118521972067963    
  0.04115072695259    0.04120161247967691    0.041337802946727745    0.04155487480386836    0.041844544610060985    
  0.04219682005993831    0.042601450003095835    0.04304753472063832    0.04352260465305635    0.044012843718003666    
  0.044504212612374326    0.04498298859007037    0.045435374447654345    0.04584739305490459    0.04620584149015481    
  0.04649941506355548    0.04671884709536466    0.04685640126048541    0.0469059718685865    0.04686407500501925    
  0.047257701064957525    0.04703743908367784    0.046728415112726025    0.04633975184182887    0.04588325291326649    
  0.045374106753779536    0.044830670573680766    0.04427261647641238    0.043718660574789486    0.04318547895037803    
  0.0426880305539973    0.042240276628231335    0.04185534436724061    0.04154491194030109    0.04131817933442746    
  0.041181115609280367    0.04113659099351285    0.04118521972067962    0.0413258433486865    0.04155487480386836    
  0.04186522721809527    0.04224635228258787    0.04268567533557942    0.04316996009579108    0.04368537355323352    
  0.04421698650870846    0.04474923157920446    0.04526722914195303    0.04575735862524467    0.046206453685908366    
  0.04660108563116533    0.046928347163340156    0.04717738306715268    0.04733993265031216    0.0474097946904212    
  0.04738276520034296    0.047257701064957525    0.04789114642190473    0.047594947061783695    0.0472030485589947    
  0.04672811122308968    0.04618540124748656    0.04559274347211733    0.04497022447100614    0.044339017673276866    
  0.04372019723137877    0.04313420154048678    0.042600208303342886    0.0421347285115008    0.04175038204683528    
  0.04145630088019188    0.04125973130610216    0.04116675385281214    0.041181115609280367    0.04130254986127778    
  0.04152639880992033    0.04184454461006099    0.04224635228258788    0.04271903638433424    0.04324794074735465    
  0.04381699025730952    0.04440895085430745    0.045005594201831575    0.045588579418749615    0.04614114173094624    
  0.04664925543795286    0.0471011723176735    0.04748612668821892    0.04779381867223109    0.048014862768089944    
  0.0481410814567633    0.04816541107093099    0.048082599566756784    0.04789114642190473    0.048693939598286856    
  0.04835260234513148    0.047901154410294945    0.04735359743730006    0.04672956770797412    0.046052691788642575    
  0.04534791748648889    0.044638911707504635    0.04394771499123034    0.04329659580442362    0.04270878555147136    
  0.04220558697029376    0.04180215135974257    0.041506693640306014    0.04132413936210986    0.04125973130610216    
  0.04131817933442746    0.04149950455519014    0.04179657183419916    0.042196820059938314    0.042685675335579425    
  0.04324794074735465    0.04386668479466858    0.0445220035651952    0.04519148223917312    0.045852108806816    
  0.046482562097602514    0.04706512502844167    0.047586633830056534    0.048038013042931024    0.04841273048023913    
  0.04870516604942602    0.04890944220872332    0.049018574233190254    0.04902420393921231    0.04891786947329287    
  0.048693939598286856    0.04954600986309513    0.04920555189580462    0.048740590943225054    0.04815895446785488    
  0.04747916332849346    0.04672976134829743    0.045944273221379936    0.04515424968155343    0.04438593487981958    
  0.043662842477926705    0.04300971999612113    0.042451703628299926    0.0420087909464392    0.041692152514155166    
  0.041506693640306    0.04145630088019188    0.04154491194030109    0.0417721945900912    0.042129558352650316    
  0.04260145000309584    0.043169960095791084    0.043816990257309514    0.044522003565195194    0.04525919160863715    
  0.045998508682835525    0.046710575797263995    0.047371772431291356    0.04796640779806476    0.04848577705043758    
  0.04892577449474528    0.049284603169208775    0.04956106072518433    0.049753071187086884    0.04985621334345661    
  0.049862836812283026    0.04976280459402758    0.04954600986309513    0.0503328884774578    0.05002862206580478    
  0.04959955575424825    0.049040316468291135    0.04835722802365681    0.047573524155196445    0.04672708072036382    
  0.04586071320908053    0.04501236051123326    0.04421244539432428    0.04348771299083402    0.04286434953050633    
  0.0423658488579343    0.0420087909464392    0.04180215135974257    0.04175038204683528    0.041855344367240616    
  0.042114318489910346    0.04251725333653771    0.043047534720638304    0.04368537355323353    0.04440895085430744    
  0.04519148223917311    0.045998508682835525    0.046790855368390186    0.0475331276434946    0.048201801078393204    
  0.04878720773609199    0.04928913230121633    0.04971038222405898    0.05005267235037376    0.050315794071412914    
  0.050498190031281844    0.05059699708590801    0.050607416057334084    0.05052238205350909    0.0503328884774578    
  0.05103085216650032    0.05075633609809834    0.05037818953471105    0.0498811668245085    0.04925292137855969    
  0.04849658134479005    0.047638259655269126    0.04672313040872706    0.04580289736720151    0.044923922231722514    
  0.04412275580574837    0.043428169037436175    0.042864349530506336    0.04245170362829993    0.04220558697029376    
  0.0421347285115008    0.04224027662823134    0.04251583071942139    0.04294882288093373    0.04352260465305636    
  0.04421698650870847    0.045005594201831575    0.04585210880681599    0.046710575797263995    0.047533127643494606    
  0.04828223476587779    0.04893971693213155    0.049506286007950304    0.049992313569163956    0.0504066447523496    
  0.0507504885503129    0.05101833115778578    0.05120256359247287    0.05129740417469962    0.05130028645453504    
  0.05121125966027084    0.05103085216650032    0.05174728405185894    0.051447795340058715    0.0510761702750775    
  0.050624144110629744    0.05007002303119298    0.04939216212582343    0.04858678465631481    0.047679066263071695    
  0.04672028849759664    0.04577297364091759    0.04489353652274887    0.04412275580574838    0.043487712990834024    
  0.043009719996121146    0.042708785551471375    0.04260020830334289    0.04268803055399731    0.04296354931069811    
  0.043410889510912876    0.044012843718003666    0.04474923157920447    0.045588579418749615    0.04648256209760251    
  0.04737177243129136    0.048201801078393204    0.048939716932131554    0.04958043427248265    0.05013948907599902    
  0.050637231823867875    0.05108385829939582    0.05147309995547008    0.05178627487709202    0.05200203953913405    
  0.05210524121555835    0.05209140527242506    0.05196716039595212    0.05174728405185894    0.052663836393855315    
  0.05226731685326308    0.051814563572698855    0.051325525483717487    0.05079355855921797    0.05018861492364442    
  0.04947525789587607    0.048637931415877696    0.04769938221165254    0.04671936745360358    0.045772973640917584    
  0.04492392223172252    0.04421244539432428    0.043662842477926705    0.04329659580442362    0.04313420154048678    
  0.04318547895037804    0.043443154834233146    0.043889075778552604    0.044504212612374326    0.045267229141953046    
  0.04614114173094623    0.047065125028441665    0.047966407798064756    0.048787207736091985    0.0495062860079503    
  0.05013948907599901    0.05072091673858539    0.051278314859151575    0.05181602698267799    0.05231187332884159    
  0.05272674692504249    0.05302001000024022    0.05316240964546172    0.05314247179793327    0.05296786351497059    
  0.052663836393855315    0.05390782063486236    0.05337663183658772    0.05276534179811202    0.05213316897433568    
  0.051514248646619104    0.05090229311324578    0.05025395752868246    0.049514332898846346    0.048654711014488455    
  0.04769938221165252    0.04672028849759663    0.04580289736720148    0.04501236051123325    0.044385934879819566    
  0.04394771499123034    0.043720197231378766    0.043718660574789486    0.04394082423270667    0.04436932027407101    
  0.04498298859007036    0.04575735862524468    0.04664925543795285    0.04758663383005652    0.048485777050437565    
  0.049289132301216315    0.04999231356916395    0.05063723182386787    0.051278314859151575    0.05194701200658665    
  0.05263396463426981    0.053292869970582066    0.05385931006874302    0.05427307563954    0.054492975158940964    
  0.05450040471491988    0.054297581269194456    0.05390782063486236    0.055424486650808104    0.05480122100102702    
  0.054026669846911804    0.053189227751898605    0.05237569541479225    0.05163507876533077    0.050956188211511655    
  0.050274921487033414    0.04951433289884636    0.04863793141587769    0.04767906626307168    0.046723130408727054    
  0.045860713209080535    0.04515424968155343    0.044638911707504635    0.044339017673276866    0.04427261647641238    
  0.044443337505662706    0.044838115446651075    0.04543537444765435    0.04620645368590837    0.0471011723176735    
  0.048038013042931024    0.04892577449474528    0.049710382224058984    0.0504066447523496    0.05108385829939584    
  0.05181602698267799    0.05263396463426982    0.05350674656510496    0.05435562360114343    0.055087465365582025    
  0.05562845763858894    0.05593971188176321    0.056009352024947875    0.05583586877889632    0.055424486650808104    
  0.056911780783684585    0.05633977458391297    0.055515711044851666    0.05451809488937667    0.05347487457151864    
  0.05250775798836175    0.051676962361980154    0.05095618821151166    0.05025395752868246    0.049475257895876056    
  0.04858678465631481    0.047638259655269126    0.04672708072036382    0.045944273221379936    0.045347917486488885    
  0.04497022447100614    0.044830670573680766    0.044936968577377875    0.045282164375737816    0.045847393054904595    
  0.046601085631165336    0.047486126688218916    0.04841273048023912    0.04928460316920877    0.05005267235037377    
  0.05075048855031291    0.05147309995547011    0.0523118733288416    0.053292869970582066    0.05435562360114343    
  0.05537819643294422    0.056232166260284294    0.05683801031881207    0.05718625804322246    0.05730846043354824    
  0.05722369748622943    0.056911780783684585    0.05786791080523682    0.05756644875872907    0.056933389378557075    
  0.05596281227773282    0.054780160218599334    0.053575552309363415    0.052507757988361756    0.05163507876533077    
  0.050902293113245796    0.050188614923644424    0.049392162125823424    0.04849658134479005    0.04757352415519645    
  0.04672976134829743    0.046052691788642575    0.04559274347211733    0.045374106753779536    0.045406480699624906    
  0.045688222751921505    0.046205841490154796    0.046928347163340156    0.04779381867223108    0.04870516604942601    
  0.049561060725184326    0.050315794071412914    0.05101833115778576    0.051786274877092    0.05272674692504248    
  0.05385931006874303    0.055087465365582    0.05623216626028431    0.05711435202771203    0.05764818091744396    
  0.057883398745462444    0.05795288360113355    0.05795525307945508    0.05786791080523682    0.057801480819162684    
  0.057974870830838125    0.05784075217562688    0.05720710226180064    0.05611271762332959    0.054780160218599334    
  0.05347487457151862    0.05237569541479223    0.05151424864661909    0.050793558559217966    0.05007002303119296    
  0.049252921378559675    0.048357228023656815    0.04747916332849345    0.0467295677079741    0.04618540124748655    
  0.04588325291326649    0.04583540936703638    0.0460432972719259    0.04649941506355547    0.04717738306715268    
  0.04801486276808992    0.048909442208723314    0.049753071187086856    0.050498190031281844    0.051202563592472855    
  0.05200203953913402    0.05302001000024022    0.054273075639539994    0.05562845763858894    0.05683801031881207    
  0.057648180917443934    0.0579470375076491    0.05785429576230975    0.05766015464525743    0.057627636205211275    
  0.057801480819162684    0.05656822652444855    0.05727040424814392    0.05786915809442395    0.057901595504762295    
  0.05720710226180064    0.05596281227773282    0.05451809488937667    0.05318922775189859    0.05213316897433569    
  0.051325525483717487    0.05062414411062973    0.0498811668245085    0.04904031646829113    0.048158954467854884    